ITEM: TIMESTEP
0
ITEM: NUMBER OF ATOMS
948
ITEM: BOX BOUNDS pp pp ss
0.0000000000000000e+00 2.0016262581012469e+01
0.0000000000000000e+00 1.0008131290506235e+01
-7.3577898822711598e-03 7.3746880262060188e+01
ITEM: ATOMS id type x y z c_eng
1 1 7.14526 8.9682 38.0897 -8.67897
2 1 7.80535 5.88409 38.4522 -9.15925
3 1 10.5373 5.41971 39.7103 -8.24565
4 1 5.53322 0.415641 39.7103 -8.24565
5 1 8.23437 1.20572 36.5751 -8.87165
6 1 10.0649 9.68758 37.9514 -8.20668
7 1 12.1493 7.80404 38.8147 -8.67897
8 1 14.4191 8.9671 37.2771 -8.42239
9 1 15.0689 7.08466 38.9529 -8.20668
10 1 7.14526 2.79998 38.8147 -8.67897
11 1 10.0649 2.08059 38.9529 -8.20668
12 1 12.8094 0.880023 38.4522 -9.15925
13 1 15.5413 0.415641 39.7103 -8.24565
14 1 12.1493 3.96413 38.0897 -8.67897
15 1 6.13046 4.90658 40.5402 -8.77441
16 1 6.88884 7.90271 40.5966 -8.44224
17 1 8.26573 5.98486 41.8464 -8.47286
18 1 9.415 7.80515 39.6272 -8.42239
19 1 11.0062 4.74357 42.239 -8.47643
20 1 13.2384 5.55839 40.3293 -8.87165
21 1 6.00209 9.74764 42.239 -8.47643
22 1 8.23437 0.554324 40.3293 -8.87165
23 1 9.03496 8.79057 42.1887 -8.58519
24 1 11.1345 9.91065 40.5402 -8.77441
25 1 11.7438 7.48195 41.8082 -8.69209
26 1 13.8303 8.70601 40.5681 -8.16246
27 1 14.9743 6.77358 42.0995 -8.53485
28 1 6.73976 2.47789 41.8082 -8.69209
29 1 8.82626 3.70195 40.5681 -8.16246
30 1 9.97021 1.76951 42.0995 -8.53485
31 1 11.8929 2.89865 40.5966 -8.44224
32 1 13.2698 0.980798 41.8464 -8.47286
33 1 14.4191 2.80108 39.6272 -8.42239
34 1 14.039 3.7865 42.1887 -8.58519
35 1 6.08914 4.75773 43.6001 -8.82621
36 1 7.00904 7.73398 43.69 -8.73278
37 1 8.00923 5.75631 45.2477 -8.57263
38 1 10.0084 6.76537 43.7819 -8.40413
39 1 11.0035 4.73876 45.2776 -8.81377
40 1 13.0144 5.7788 43.661 -8.58479
41 1 5.99948 9.74283 45.2776 -8.81377
42 1 8.01037 0.774731 43.661 -8.58479
43 1 9.01423 8.78427 45.2693 -8.79644
44 1 11.0932 9.76179 43.6001 -8.82621
45 1 12.0073 7.75775 45.2498 -8.55833
46 1 13.9201 8.76058 43.6142 -8.79281
47 1 15.0102 6.75847 45.2397 -8.8032
48 1 7.00321 2.75368 45.2498 -8.55833
49 1 8.91606 3.75651 43.6142 -8.79281
50 1 10.0061 1.75441 45.2397 -8.8032
51 1 12.0131 2.72991 43.69 -8.73278
52 1 13.0133 0.752247 45.2477 -8.57263
53 1 15.0125 1.76131 43.7819 -8.40413
54 1 14.0183 3.78021 45.2693 -8.79644
55 1 6.00976 4.76043 46.8241 -8.72817
56 1 7.00875 7.75486 46.8416 -8.76514
57 1 8.00583 5.75539 48.4203 -8.75298
58 1 10.0071 6.76014 46.8586 -8.79621
59 1 11.0084 4.75429 48.4246 -8.76851
60 1 13.0084 5.76273 46.8378 -8.749
61 1 6.00435 9.75836 48.4246 -8.76852
62 1 8.00434 0.758667 46.8378 -8.749
63 1 9.00817 8.76487 48.4231 -8.76487
64 1 11.0138 9.7645 46.8241 -8.72817
65 1 12.0102 7.76224 48.4202 -8.75539
66 1 14.0067 8.75739 46.8273 -8.73245
67 1 15.0121 6.75876 48.4155 -8.75942
68 1 7.0061 2.75818 48.4202 -8.75539
69 1 9.00262 3.75332 46.8273 -8.73245
70 1 10.0081 1.7547 48.4155 -8.75942
71 1 12.0128 2.75079 46.8416 -8.76514
72 1 13.0099 0.751325 48.4203 -8.75298
73 1 15.0112 1.75607 46.8586 -8.79621
74 1 14.0122 3.7608 48.4231 -8.76487
75 1 6.00482 4.75826 50.0009 -8.75311
76 1 7.00621 7.75873 50.0035 -8.7619
77 1 8.00629 5.75761 51.5856 -8.7596
78 1 10.0079 6.7593 50.0065 -8.7692
79 1 11.009 4.75697 51.5861 -8.76139
80 1 13.0102 5.75951 50.0031 -8.75975
81 1 6.00492 9.76103 51.5861 -8.76139
82 1 8.00614 0.755442 50.0031 -8.75975
83 1 9.00733 8.76141 51.5859 -8.7608
84 1 11.0089 9.76233 50.0009 -8.75311
85 1 12.0099 7.76053 51.5855 -8.75971
86 1 14.0115 8.75976 50.0015 -8.75446
87 1 15.0122 6.75903 51.5846 -8.75862
88 1 7.00583 2.75647 51.5855 -8.75971
89 1 9.00742 3.75569 50.0015 -8.75446
90 1 10.0081 1.75496 51.5846 -8.75862
91 1 12.0103 2.75466 50.0035 -8.7619
92 1 13.0104 0.753544 51.5856 -8.7596
93 1 15.012 1.75523 50.0065 -8.7692
94 1 14.0114 3.75735 51.5859 -8.7608
95 1 6.00488 4.75748 53.168 -8.75893
96 1 7.00569 7.75992 53.168 -8.76023
97 1 8.0065 5.7583 54.7504 -8.76001
98 1 10.0081 6.75911 53.168 -8.76155
99 1 11.0089 4.75748 54.7504 -8.76022
100 1 13.0106 5.7583 53.168 -8.75999
101 1 6.00488 9.76155 54.7504 -8.76022
102 1 8.0065 0.754232 53.168 -8.75999
103 1 9.00732 8.76074 54.7504 -8.76014
104 1 11.0089 9.76155 53.168 -8.75893
105 1 12.0098 7.75992 54.7504 -8.75998
106 1 14.0114 8.76074 53.168 -8.75919
107 1 15.0122 6.75911 54.7504 -8.75964
108 1 7.00569 2.75586 54.7504 -8.75998
109 1 9.00732 3.75667 53.168 -8.75919
110 1 10.0081 1.75505 54.7504 -8.75964
111 1 12.0098 2.75586 53.168 -8.76023
112 1 13.0106 0.754232 54.7504 -8.76001
113 1 15.0122 1.75505 53.168 -8.76155
114 1 14.0114 3.75667 54.7504 -8.76014
115 1 6.00488 4.75748 56.3328 -8.75999
116 1 7.00569 7.75992 56.3328 -8.75999
117 1 8.0065 5.7583 57.9152 -8.75999
118 1 10.0081 6.75911 56.3328 -8.75999
119 1 11.0089 4.75748 57.9152 -8.75999
120 1 13.0106 5.7583 56.3328 -8.75999
121 1 6.00488 9.76155 57.9152 -8.75999
122 1 8.0065 0.754232 56.3328 -8.75999
123 1 9.00732 8.76074 57.9152 -8.75999
124 1 11.0089 9.76155 56.3328 -8.75999
125 1 12.0098 7.75992 57.9152 -8.75999
126 1 14.0114 8.76074 56.3328 -8.75999
127 1 15.0122 6.75911 57.9152 -8.75999
128 1 7.00569 2.75586 57.9152 -8.75999
129 1 9.00732 3.75667 56.3328 -8.75999
130 1 10.0081 1.75505 57.9152 -8.75999
131 1 12.0098 2.75586 56.3328 -8.75999
132 1 13.0106 0.754232 57.9152 -8.75999
133 1 15.0122 1.75505 56.3328 -8.75999
134 1 14.0114 3.75667 57.9152 -8.75999
135 1 6.00488 4.75748 59.4977 -8.75999
136 1 7.00569 7.75992 59.4977 -8.75999
137 1 8.0065 5.7583 61.0801 -8.75999
138 1 10.0081 6.75911 59.4977 -8.75999
139 1 11.0089 4.75748 61.0801 -8.75999
140 1 13.0106 5.7583 59.4977 -8.75999
141 1 6.00488 9.76155 61.0801 -8.75999
142 1 8.0065 0.754232 59.4977 -8.75999
143 1 9.00732 8.76074 61.0801 -8.75999
144 1 11.0089 9.76155 59.4977 -8.75999
145 1 12.0098 7.75992 61.0801 -8.75999
146 1 14.0114 8.76074 59.4977 -8.75999
147 1 15.0122 6.75911 61.0801 -8.75999
148 1 7.00569 2.75586 61.0801 -8.75999
149 1 9.00732 3.75667 59.4977 -8.75999
150 1 10.0081 1.75505 61.0801 -8.75999
151 1 12.0098 2.75586 59.4977 -8.75999
152 1 13.0106 0.754232 61.0801 -8.75999
153 1 15.0122 1.75505 59.4977 -8.75999
154 1 14.0114 3.75667 61.0801 -8.75999
155 1 6.00488 4.75748 62.6625 -8.75999
156 1 7.00569 7.75992 62.6625 -8.75999
157 1 8.0065 5.7583 64.2449 -8.75999
158 1 10.0081 6.75911 62.6625 -8.75999
159 1 11.0089 4.75748 64.2449 -8.75999
160 1 13.0106 5.7583 62.6625 -8.75999
161 1 6.00488 9.76155 64.2449 -8.75999
162 1 8.0065 0.754232 62.6625 -8.75999
163 1 9.00732 8.76074 64.2449 -8.75999
164 1 11.0089 9.76155 62.6625 -8.75999
165 1 12.0098 7.75992 64.2449 -8.75999
166 1 14.0114 8.76074 62.6625 -8.75999
167 1 15.0122 6.75911 64.2449 -8.75999
168 1 7.00569 2.75586 64.2449 -8.75999
169 1 9.00732 3.75667 62.6625 -8.75999
170 1 10.0081 1.75505 64.2449 -8.75999
171 1 12.0098 2.75586 62.6625 -8.75999
172 1 13.0106 0.754232 64.2449 -8.75999
173 1 15.0122 1.75505 62.6625 -8.75999
174 1 14.0114 3.75667 64.2449 -8.75999
175 1 6.00488 4.75748 65.8273 -8.75999
176 1 7.00569 7.75992 65.8273 -8.75999
177 1 8.0065 5.7583 67.4098 -8.75999
178 1 10.0081 6.75911 65.8273 -8.75999
179 1 11.0089 4.75748 67.4098 -8.75999
180 1 13.0106 5.7583 65.8273 -8.75999
181 1 6.00488 9.76155 67.4098 -8.75999
182 1 8.0065 0.754232 65.8273 -8.75999
183 1 9.00732 8.76074 67.4098 -8.75999
184 1 11.0089 9.76155 65.8273 -8.75999
185 1 12.0098 7.75992 67.4098 -8.75999
186 1 14.0114 8.76074 65.8273 -8.75999
187 1 15.0122 6.75911 67.4098 -8.75999
188 1 7.00569 2.75586 67.4098 -8.75999
189 1 9.00732 3.75667 65.8273 -8.75999
190 1 10.0081 1.75505 67.4098 -8.75999
191 1 12.0098 2.75586 65.8273 -8.75999
192 1 13.0106 0.754232 67.4098 -8.75999
193 1 15.0122 1.75505 65.8273 -8.75999
194 1 14.0114 3.75667 67.4098 -8.75999
195 1 6.00488 4.75748 68.9922 -8.75999
196 1 7.00569 7.75992 68.9922 -8.75999
197 1 8.0065 5.7583 70.5746 -8.75999
198 1 10.0081 6.75911 68.9922 -8.75999
199 1 11.0089 4.75748 70.5746 -8.75999
200 1 13.0106 5.7583 68.9922 -8.75999
201 1 6.00488 9.76155 70.5746 -8.75999
202 1 8.0065 0.754232 68.9922 -8.75999
203 1 9.00732 8.76074 70.5746 -8.75999
204 1 11.0089 9.76155 68.9922 -8.75999
205 1 12.0098 7.75992 70.5746 -8.75999
206 1 14.0114 8.76074 68.9922 -8.75999
207 1 15.0122 6.75911 70.5746 -8.75999
208 1 7.00569 2.75586 70.5746 -8.75999
209 1 9.00732 3.75667 68.9922 -8.75999
210 1 10.0081 1.75505 70.5746 -8.75999
211 1 12.0098 2.75586 68.9922 -8.75999
212 1 13.0106 0.754232 70.5746 -8.75999
213 1 15.0122 1.75505 68.9922 -8.75999
214 1 14.0114 3.75667 70.5746 -8.75999
215 1 6.00488 4.75748 72.157 -8.49339
216 1 7.00569 7.75992 72.157 -8.49339
217 1 8.0065 5.7583 73.7395 -7.15841
218 1 10.0081 6.75911 72.157 -8.49339
219 1 11.0089 4.75748 73.7395 -7.15841
220 1 13.0106 5.7583 72.157 -8.49339
221 1 6.00488 9.76155 73.7395 -7.15841
222 1 8.0065 0.754232 72.157 -8.49339
223 1 9.00732 8.76074 73.7395 -7.15841
224 1 11.0089 9.76155 72.157 -8.49339
225 1 12.0098 7.75992 73.7395 -7.15841
226 1 14.0114 8.76074 72.157 -8.49339
227 1 15.0122 6.75911 73.7395 -7.15841
228 1 7.00569 2.75586 73.7395 -7.15841
229 1 9.00732 3.75667 72.157 -8.49339
230 1 10.0081 1.75505 73.7395 -7.15841
231 1 12.0098 2.75586 72.157 -8.49339
232 1 13.0106 0.754232 73.7395 -7.15841
233 1 15.0122 1.75505 72.157 -8.49339
234 1 14.0114 3.75667 73.7395 -7.15841
235 1 15.0689 4.68351 37.9514 -8.20668
236 1 17.8135 5.88409 38.4522 -9.15925
237 1 0.52915 6.34847 37.1941 -8.24566
238 1 0.52915 5.41971 39.7103 -8.24565
239 1 17.1534 8.9682 38.0897 -8.67897
240 1 0.0567472 9.68758 37.9514 -8.20668
241 1 2.14119 7.80404 38.8147 -8.67897
242 1 5.06081 7.08466 38.9529 -8.20668
243 1 17.1534 2.79998 38.8147 -8.67897
244 1 19.4231 3.96303 37.2771 -8.42239
245 1 0.0567472 2.0806 38.9529 -8.20668
246 1 2.14119 3.96413 38.0897 -8.67897
247 1 2.80128 0.880022 38.4522 -9.15925
248 1 5.06081 4.68351 37.9514 -8.20668
249 1 16.1386 4.90658 40.5402 -8.77441
250 1 16.897 7.90272 40.5966 -8.44224
251 1 18.2739 5.98486 41.8464 -8.47286
252 1 19.4231 7.80515 39.6272 -8.42239
253 1 0.998021 4.74357 42.239 -8.47643
254 1 3.2303 5.55839 40.3293 -8.87165
255 1 16.0102 9.74764 42.239 -8.47643
256 1 18.2425 0.554324 40.3293 -8.87165
257 1 19.0431 8.79057 42.1887 -8.58519
258 1 1.12639 9.91065 40.5402 -8.77441
259 1 1.73569 7.48195 41.8082 -8.69209
260 1 3.82219 8.70601 40.5681 -8.16246
261 1 4.96615 6.77358 42.0995 -8.53485
262 1 16.7479 2.47789 41.8082 -8.69209
263 1 18.8344 3.70195 40.5681 -8.16246
264 1 19.9783 1.76951 42.0995 -8.53485
265 1 1.88478 2.89865 40.5966 -8.44224
266 1 3.26166 0.980799 41.8464 -8.47286
267 1 4.41094 2.80108 39.6272 -8.42239
268 1 4.03089 3.7865 42.1887 -8.58519
269 1 16.0973 4.75773 43.6001 -8.82621
270 1 17.0172 7.73398 43.69 -8.73278
271 1 18.0174 5.75631 45.2477 -8.57263
272 1 0.000270557 6.76537 43.7819 -8.40413
273 1 0.995412 4.73876 45.2776 -8.81377
274 1 3.00631 5.7788 43.661 -8.58479
275 1 16.0076 9.74283 45.2776 -8.81377
276 1 18.0185 0.774731 43.661 -8.58479
277 1 19.0224 8.78427 45.2693 -8.79644
278 1 1.08508 9.76179 43.6001 -8.82621
279 1 1.99915 7.75775 45.2498 -8.55833
280 1 3.91199 8.76058 43.6142 -8.79281
281 1 5.00205 6.75847 45.2397 -8.8032
282 1 17.0113 2.75368 45.2498 -8.55833
283 1 18.9242 3.75651 43.6142 -8.79281
284 1 20.0143 1.75441 45.2397 -8.8032
285 1 2.00498 2.72991 43.69 -8.73278
286 1 3.00516 0.752247 45.2477 -8.57263
287 1 5.00434 1.76131 43.7819 -8.40413
288 1 4.01016 3.78021 45.2693 -8.79644
289 1 16.0179 4.76043 46.8241 -8.72817
290 1 17.0169 7.75486 46.8416 -8.76514
291 1 18.014 5.75539 48.4203 -8.75298
292 1 20.0152 6.76014 46.8586 -8.79621
293 1 1.00028 4.75429 48.4246 -8.76852
294 1 3.00028 5.76273 46.8378 -8.749
295 1 16.0125 9.75836 48.4246 -8.76852
296 1 18.0125 0.758667 46.8378 -8.749
297 1 19.0163 8.76487 48.4231 -8.76487
298 1 1.00569 9.7645 46.8241 -8.72817
299 1 2.00204 7.76224 48.4202 -8.75539
300 1 3.99855 8.75739 46.8273 -8.73245
301 1 5.004 6.75876 48.4155 -8.75942
302 1 17.0142 2.75818 48.4202 -8.75539
303 1 19.0108 3.75332 46.8273 -8.73245
304 1 20.0162 1.7547 48.4155 -8.75942
305 1 2.00468 2.75079 46.8416 -8.76514
306 1 3.00176 0.751325 48.4203 -8.75298
307 1 5.00303 1.75607 46.8586 -8.79621
308 1 4.0041 3.7608 48.4231 -8.76487
309 1 16.0129 4.75826 50.0009 -8.75311
310 1 17.0143 7.75873 50.0035 -8.7619
311 1 18.0144 5.75761 51.5856 -8.7596
312 1 20.0161 6.7593 50.0065 -8.7692
313 1 1.00085 4.75697 51.5861 -8.76139
314 1 3.00207 5.75951 50.0031 -8.75975
315 1 16.013 9.76103 51.5861 -8.76139
316 1 18.0143 0.755442 50.0031 -8.75975
317 1 19.0155 8.76141 51.5859 -8.7608
318 1 1.00075 9.76233 50.0009 -8.75311
319 1 2.00177 7.76053 51.5855 -8.75971
320 1 4.00335 8.75976 50.0015 -8.75446
321 1 5.00408 6.75903 51.5846 -8.75862
322 1 17.014 2.75647 51.5855 -8.75971
323 1 19.0155 3.75569 50.0015 -8.75446
324 1 1.47223e-05 1.75496 51.5846 -8.75862
325 1 2.00215 2.75466 50.0035 -8.7619
326 1 3.00222 0.753544 51.5856 -8.7596
327 1 5.00386 1.75523 50.0065 -8.7692
328 1 4.00326 3.75735 51.5859 -8.7608
329 1 16.013 4.75748 53.168 -8.75893
330 1 17.0138 7.75992 53.168 -8.76023
331 1 18.0146 5.7583 54.7504 -8.76001
332 1 20.0163 6.75911 53.168 -8.76155
333 1 1.00081 4.75748 54.7504 -8.76022
334 1 3.00244 5.7583 53.168 -8.75999
335 1 16.013 9.76155 54.7504 -8.76022
336 1 18.0146 0.754232 53.168 -8.75999
337 1 19.0154 8.76074 54.7504 -8.76014
338 1 1.00081 9.76155 53.168 -8.75893
339 1 2.00162 7.75992 54.7504 -8.75998
340 1 4.00325 8.76074 53.168 -8.75919
341 1 5.00406 6.75911 54.7504 -8.75964
342 1 17.0138 2.75586 54.7504 -8.75998
343 1 19.0154 3.75667 53.168 -8.75919
344 1 20.0163 1.75505 54.7504 -8.75964
345 1 2.00162 2.75586 53.168 -8.76023
346 1 3.00244 0.754232 54.7504 -8.76001
347 1 5.00406 1.75505 53.168 -8.76155
348 1 4.00325 3.75667 54.7504 -8.76014
349 1 16.013 4.75748 56.3328 -8.75999
350 1 17.0138 7.75992 56.3328 -8.75999
351 1 18.0146 5.7583 57.9152 -8.75999
352 1 20.0163 6.75911 56.3328 -8.75999
353 1 1.00081 4.75748 57.9152 -8.75999
354 1 3.00244 5.7583 56.3328 -8.75999
355 1 16.013 9.76155 57.9152 -8.75999
356 1 18.0146 0.754232 56.3328 -8.75999
357 1 19.0154 8.76074 57.9152 -8.75999
358 1 1.00081 9.76155 56.3328 -8.75999
359 1 2.00162 7.75992 57.9152 -8.75999
360 1 4.00325 8.76074 56.3328 -8.75999
361 1 5.00406 6.75911 57.9152 -8.75999
362 1 17.0138 2.75586 57.9152 -8.75999
363 1 19.0154 3.75667 56.3328 -8.75999
364 1 20.0163 1.75505 57.9152 -8.75999
365 1 2.00162 2.75586 56.3328 -8.75999
366 1 3.00244 0.754232 57.9152 -8.75999
367 1 5.00406 1.75505 56.3328 -8.75999
368 1 4.00325 3.75667 57.9152 -8.75999
369 1 16.013 4.75748 59.4977 -8.75999
370 1 17.0138 7.75992 59.4977 -8.75999
371 1 18.0146 5.7583 61.0801 -8.75999
372 1 20.0163 6.75911 59.4977 -8.75999
373 1 1.00081 4.75748 61.0801 -8.75999
374 1 3.00244 5.7583 59.4977 -8.75999
375 1 16.013 9.76155 61.0801 -8.75999
376 1 18.0146 0.754232 59.4977 -8.75999
377 1 19.0154 8.76074 61.0801 -8.75999
378 1 1.00081 9.76155 59.4977 -8.75999
379 1 2.00162 7.75992 61.0801 -8.75999
380 1 4.00325 8.76074 59.4977 -8.75999
381 1 5.00406 6.75911 61.0801 -8.75999
382 1 17.0138 2.75586 61.0801 -8.75999
383 1 19.0154 3.75667 59.4977 -8.75999
384 1 20.0163 1.75505 61.0801 -8.75999
385 1 2.00162 2.75586 59.4977 -8.75999
386 1 3.00244 0.754232 61.0801 -8.75999
387 1 5.00406 1.75505 59.4977 -8.75999
388 1 4.00325 3.75667 61.0801 -8.75999
389 1 16.013 4.75748 62.6625 -8.75999
390 1 17.0138 7.75992 62.6625 -8.75999
391 1 18.0146 5.7583 64.2449 -8.75999
392 1 20.0163 6.75911 62.6625 -8.75999
393 1 1.00081 4.75748 64.2449 -8.75999
394 1 3.00244 5.7583 62.6625 -8.75999
395 1 16.013 9.76155 64.2449 -8.75999
396 1 18.0146 0.754232 62.6625 -8.75999
397 1 19.0154 8.76074 64.2449 -8.75999
398 1 1.00081 9.76155 62.6625 -8.75999
399 1 2.00162 7.75992 64.2449 -8.75999
400 1 4.00325 8.76074 62.6625 -8.75999
401 1 5.00406 6.75911 64.2449 -8.75999
402 1 17.0138 2.75586 64.2449 -8.75999
403 1 19.0154 3.75667 62.6625 -8.75999
404 1 20.0163 1.75505 64.2449 -8.75999
405 1 2.00162 2.75586 62.6625 -8.75999
406 1 3.00244 0.754232 64.2449 -8.75999
407 1 5.00406 1.75505 62.6625 -8.75999
408 1 4.00325 3.75667 64.2449 -8.75999
409 1 16.013 4.75748 65.8273 -8.75999
410 1 17.0138 7.75992 65.8273 -8.75999
411 1 18.0146 5.7583 67.4098 -8.75999
412 1 20.0163 6.75911 65.8273 -8.75999
413 1 1.00081 4.75748 67.4098 -8.75999
414 1 3.00244 5.7583 65.8273 -8.75999
415 1 16.013 9.76155 67.4098 -8.75999
416 1 18.0146 0.754232 65.8273 -8.75999
417 1 19.0154 8.76074 67.4098 -8.75999
418 1 1.00081 9.76155 65.8273 -8.75999
419 1 2.00162 7.75992 67.4098 -8.75999
420 1 4.00325 8.76074 65.8273 -8.75999
421 1 5.00406 6.75911 67.4098 -8.75999
422 1 17.0138 2.75586 67.4098 -8.75999
423 1 19.0154 3.75667 65.8273 -8.75999
424 1 20.0163 1.75505 67.4098 -8.75999
425 1 2.00162 2.75586 65.8273 -8.75999
426 1 3.00244 0.754232 67.4098 -8.75999
427 1 5.00406 1.75505 65.8273 -8.75999
428 1 4.00325 3.75667 67.4098 -8.75999
429 1 16.013 4.75748 68.9922 -8.75999
430 1 17.0138 7.75992 68.9922 -8.75999
431 1 18.0146 5.7583 70.5746 -8.75999
432 1 20.0163 6.75911 68.9922 -8.75999
433 1 1.00081 4.75748 70.5746 -8.75999
434 1 3.00244 5.7583 68.9922 -8.75999
435 1 16.013 9.76155 70.5746 -8.75999
436 1 18.0146 0.754232 68.9922 -8.75999
437 1 19.0154 8.76074 70.5746 -8.75999
438 1 1.00081 9.76155 68.9922 -8.75999
439 1 2.00162 7.75992 70.5746 -8.75999
440 1 4.00325 8.76074 68.9922 -8.75999
441 1 5.00406 6.75911 70.5746 -8.75999
442 1 17.0138 2.75586 70.5746 -8.75999
443 1 19.0154 3.75667 68.9922 -8.75999
444 1 20.0163 1.75505 70.5746 -8.75999
445 1 2.00162 2.75586 68.9922 -8.75999
446 1 3.00244 0.754232 70.5746 -8.75999
447 1 5.00406 1.75505 68.9922 -8.75999
448 1 4.00325 3.75667 70.5746 -8.75999
449 1 16.013 4.75748 72.157 -8.49339
450 1 17.0138 7.75992 72.157 -8.49339
451 1 18.0146 5.7583 73.7395 -7.15841
452 1 20.0163 6.75911 72.157 -8.49339
453 1 1.00081 4.75748 73.7395 -7.15841
454 1 3.00244 5.7583 72.157 -8.49339
455 1 16.013 9.76155 73.7395 -7.15841
456 1 18.0146 0.754232 72.157 -8.49339
457 1 19.0154 8.76074 73.7395 -7.15841
458 1 1.00081 9.76155 72.157 -8.49339
459 1 2.00162 7.75992 73.7395 -7.15841
460 1 4.00325 8.76074 72.157 -8.49339
461 1 5.00406 6.75911 73.7395 -7.15841
462 1 17.0138 2.75586 73.7395 -7.15841
463 1 19.0154 3.75667 72.157 -8.49339
464 1 20.0163 1.75505 73.7395 -7.15841
465 1 2.00162 2.75586 72.157 -8.49339
466 1 3.00244 0.754232 73.7395 -7.15841
467 1 5.00406 1.75505 72.157 -8.49339
468 1 4.00325 3.75667 73.7395 -7.15841
469 1 0 0.005 5e-05 -7.15841
470 1 3.00244 1.00581 5e-05 -7.15841
471 1 5.00407 0.005 1.58247 -8.49339
472 1 6.00488 2.00663 5e-05 -7.15841
473 1 8.00651 1.00581 1.58247 -8.49339
474 1 9.00732 3.00744 5e-05 -7.15841
475 1 1.00081 2.00663 1.58247 -8.49339
476 1 2.00163 4.00825 5e-05 -7.15841
477 1 4.00325 3.00744 1.58247 -8.49339
478 1 5.00407 5.00907 5e-05 -7.15841
479 1 7.00569 4.00825 1.58247 -8.49339
480 1 8.00651 6.00988 5e-05 -7.15841
481 1 0 5.00907 1.58247 -8.49339
482 1 1.00081 7.01069 5e-05 -7.15841
483 1 3.00244 6.00988 1.58247 -8.49339
484 1 4.00325 8.01151 5e-05 -7.15841
485 1 6.00488 7.01069 1.58247 -8.49339
486 1 7.00569 9.01232 5e-05 -7.15841
487 1 9.00732 8.01151 1.58247 -8.49339
488 1 2.00163 9.01232 1.58247 -8.49339
489 1 0 0.005 3.1649 -8.75999
490 1 3.00244 1.00581 3.1649 -8.75999
491 1 5.00407 0.005 4.74732 -8.75999
492 1 6.00488 2.00663 3.1649 -8.75999
493 1 8.00651 1.00581 4.74732 -8.75999
494 1 9.00732 3.00744 3.1649 -8.75999
495 1 1.00081 2.00663 4.74732 -8.75999
496 1 2.00163 4.00825 3.1649 -8.75999
497 1 4.00325 3.00744 4.74732 -8.75999
498 1 5.00407 5.00907 3.1649 -8.75999
499 1 7.00569 4.00825 4.74732 -8.75999
500 1 8.00651 6.00988 3.1649 -8.75999
501 1 0 5.00907 4.74732 -8.75999
502 1 1.00081 7.01069 3.1649 -8.75999
503 1 3.00244 6.00988 4.74732 -8.75999
504 1 4.00325 8.01151 3.1649 -8.75999
505 1 6.00488 7.01069 4.74732 -8.75999
506 1 7.00569 9.01232 3.1649 -8.75999
507 1 9.00732 8.01151 4.74732 -8.75999
508 1 2.00163 9.01232 4.74732 -8.75999
509 1 0 0.005 6.32975 -8.75999
510 1 3.00244 1.00581 6.32975 -8.75999
511 1 5.00407 0.005 7.91217 -8.75999
512 1 6.00488 2.00663 6.32975 -8.75999
513 1 8.00651 1.00581 7.91217 -8.75999
514 1 9.00732 3.00744 6.32975 -8.75999
515 1 1.00081 2.00663 7.91217 -8.75999
516 1 2.00163 4.00825 6.32975 -8.75999
517 1 4.00325 3.00744 7.91217 -8.75999
518 1 5.00407 5.00907 6.32975 -8.75999
519 1 7.00569 4.00825 7.91217 -8.75999
520 1 8.00651 6.00988 6.32975 -8.75999
521 1 0 5.00907 7.91217 -8.75999
522 1 1.00081 7.01069 6.32975 -8.75999
523 1 3.00244 6.00988 7.91217 -8.75999
524 1 4.00325 8.01151 6.32975 -8.75999
525 1 6.00488 7.01069 7.91217 -8.75999
526 1 7.00569 9.01232 6.32975 -8.75999
527 1 9.00732 8.01151 7.91217 -8.75999
528 1 2.00163 9.01232 7.91217 -8.75999
529 1 0 0.005 9.4946 -8.75999
530 1 3.00244 1.00581 9.4946 -8.75999
531 1 5.00407 0.005 11.077 -8.75999
532 1 6.00488 2.00663 9.4946 -8.75999
533 1 8.00651 1.00581 11.077 -8.75999
534 1 9.00732 3.00744 9.4946 -8.75999
535 1 1.00081 2.00663 11.077 -8.75999
536 1 2.00163 4.00825 9.4946 -8.75999
537 1 4.00325 3.00744 11.077 -8.75999
538 1 5.00407 5.00907 9.4946 -8.75999
539 1 7.00569 4.00825 11.077 -8.75999
540 1 8.00651 6.00988 9.4946 -8.75999
541 1 0 5.00907 11.077 -8.75999
542 1 1.00081 7.01069 9.4946 -8.75999
543 1 3.00244 6.00988 11.077 -8.75999
544 1 4.00325 8.01151 9.4946 -8.75999
545 1 6.00488 7.01069 11.077 -8.75999
546 1 7.00569 9.01232 9.4946 -8.75999
547 1 9.00732 8.01151 11.077 -8.75999
548 1 2.00163 9.01232 11.077 -8.75999
549 1 0 0.005 12.6594 -8.75999
550 1 3.00244 1.00581 12.6594 -8.75999
551 1 5.00407 0.005 14.2419 -8.75999
552 1 6.00488 2.00663 12.6594 -8.75999
553 1 8.00651 1.00581 14.2419 -8.75999
554 1 9.00732 3.00744 12.6594 -8.75999
555 1 1.00081 2.00663 14.2419 -8.75999
556 1 2.00163 4.00825 12.6594 -8.75999
557 1 4.00325 3.00744 14.2419 -8.75999
558 1 5.00407 5.00907 12.6594 -8.75999
559 1 7.00569 4.00825 14.2419 -8.75999
560 1 8.00651 6.00988 12.6594 -8.75999
561 1 0 5.00907 14.2419 -8.75999
562 1 1.00081 7.01069 12.6594 -8.75999
563 1 3.00244 6.00988 14.2419 -8.75999
564 1 4.00325 8.01151 12.6594 -8.75999
565 1 6.00488 7.01069 14.2419 -8.75999
566 1 7.00569 9.01232 12.6594 -8.75999
567 1 9.00732 8.01151 14.2419 -8.75999
568 1 2.00163 9.01232 14.2419 -8.75999
569 1 0 0.005 15.8243 -8.75999
570 1 3.00244 1.00581 15.8243 -8.75999
571 1 5.00407 0.005 17.4067 -8.75999
572 1 6.00488 2.00663 15.8243 -8.75999
573 1 8.00651 1.00581 17.4067 -8.75999
574 1 9.00732 3.00744 15.8243 -8.75999
575 1 1.00081 2.00663 17.4067 -8.75999
576 1 2.00163 4.00825 15.8243 -8.75999
577 1 4.00325 3.00744 17.4067 -8.75999
578 1 5.00407 5.00907 15.8243 -8.75999
579 1 7.00569 4.00825 17.4067 -8.75999
580 1 8.00651 6.00988 15.8243 -8.75999
581 1 0 5.00907 17.4067 -8.75999
582 1 1.00081 7.01069 15.8243 -8.75999
583 1 3.00244 6.00988 17.4067 -8.75999
584 1 4.00325 8.01151 15.8243 -8.75999
585 1 6.00488 7.01069 17.4067 -8.75999
586 1 7.00569 9.01232 15.8243 -8.75999
587 1 9.00732 8.01151 17.4067 -8.75999
588 1 2.00163 9.01232 17.4067 -8.75999
589 1 0 0.005 18.9891 -8.75993
590 1 3.00244 1.00581 18.9891 -8.76
591 1 5.00407 0.005 20.5716 -8.76025
592 1 6.00488 2.00663 18.9891 -8.76003
593 1 8.00651 1.00581 20.5716 -8.75999
594 1 9.00732 3.00744 18.9891 -8.76002
595 1 1.00081 2.00663 20.5716 -8.75983
596 1 2.00163 4.00825 18.9891 -8.75999
597 1 4.00325 3.00744 20.5716 -8.75987
598 1 5.00407 5.00907 18.9891 -8.75993
599 1 7.00569 4.00825 20.5716 -8.76002
600 1 8.00651 6.00988 18.9891 -8.76
601 1 0 5.00907 20.5716 -8.76025
602 1 1.00081 7.01069 18.9891 -8.76003
603 1 3.00244 6.00988 20.5716 -8.75999
604 1 4.00325 8.01151 18.9891 -8.76002
605 1 6.00488 7.01069 20.5716 -8.75983
606 1 7.00569 9.01232 18.9891 -8.75999
607 1 9.00732 8.01151 20.5716 -8.75987
608 1 2.00163 9.01232 20.5716 -8.76002
609 1 7.22369e-06 0.00501459 22.1542 -8.75959
610 1 3.00241 1.00594 22.154 -8.75998
611 1 5.00403 0.00496702 23.7359 -8.76163
612 1 6.00491 2.00671 22.1539 -8.76028
613 1 8.00647 1.00554 23.7364 -8.76
614 1 9.00729 3.00733 22.1539 -8.76017
615 1 1.00072 2.00647 23.7368 -8.75886
616 1 2.00164 4.00813 22.154 -8.75997
617 1 4.00334 3.00765 23.7367 -8.75913
618 1 5.00407 5.00908 22.1542 -8.75959
619 1 7.00576 4.00851 23.7364 -8.76027
620 1 8.00647 6.01001 22.154 -8.75998
621 1 20.0162 5.00903 23.7359 -8.76163
622 1 1.00084 7.01077 22.1539 -8.76028
623 1 3.0024 6.0096 23.7364 -8.76
624 1 4.00323 8.0114 22.1539 -8.76017
625 1 6.00479 7.01054 23.7368 -8.75886
626 1 7.00571 9.0122 22.154 -8.75997
627 1 9.00741 8.01171 23.7367 -8.75913
628 1 2.00169 9.01258 23.7364 -8.76027
629 1 2.81223e-05 0.00507495 25.32 -8.75835
630 1 3.00233 1.00652 25.3188 -8.75959
631 1 5.00386 0.00481299 26.8978 -8.76898
632 1 6.00495 2.00712 25.3181 -8.76157
633 1 8.00613 1.00461 26.9013 -8.75977
634 1 9.00728 3.00678 25.3184 -8.76092
635 1 1.00076 2.00585 26.9036 -8.75324
636 1 2.00167 4.00763 25.3189 -8.75967
637 1 4.00335 3.00842 26.903 -8.75456
638 1 5.00409 5.00914 25.32 -8.75835
639 1 7.00623 4.00945 26.9008 -8.76189
640 1 8.00639 6.01059 25.3188 -8.75959
641 1 20.0161 5.00888 26.8978 -8.76898
642 1 1.00089 7.01118 25.3181 -8.76157
643 1 3.00206 6.00867 26.9013 -8.75977
644 1 4.00322 8.01085 25.3184 -8.76092
645 1 6.00482 7.00991 26.9036 -8.75324
646 1 7.00574 9.0117 25.3189 -8.75967
647 1 9.00742 8.01249 26.903 -8.75456
648 1 2.00216 9.01351 26.9008 -8.76189
649 1 20.0162 0.00534644 28.4889 -8.75946
650 1 3.00178 1.00871 28.484 -8.75298
651 1 5.00304 0.00397286 30.0457 -8.79617
652 1 6.00435 2.00981 28.4798 -8.76849
653 1 8.00434 1.00138 30.0666 -8.749
654 1 9.00817 3.00332 28.4812 -8.76485
655 1 1.0057 2.00368 30.0803 -8.7282
656 1 2.00203 4.00595 28.4842 -8.75539
657 1 3.99855 3.01078 30.0771 -8.73247
658 1 5.004 5.00941 28.4889 -8.75946
659 1 7.00875 4.01331 30.0628 -8.76513
660 1 8.00584 6.01278 28.484 -8.75298
661 1 20.0152 5.00804 30.0457 -8.79617
662 1 1.00028 7.01388 28.4798 -8.76849
663 1 3.00028 6.00545 30.0666 -8.749
664 1 4.0041 8.00738 28.4812 -8.76485
665 1 6.00976 7.00775 30.0803 -8.7282
666 1 7.00609 9.01001 28.4842 -8.75539
667 1 9.00262 8.01485 30.0771 -8.73247
668 1 2.00469 9.01738 30.0628 -8.76513
669 1 20.0143 0.00563825 31.6647 -8.80322
670 1 3.00516 1.00779 31.6567 -8.57263
671 1 5.00434 10.0069 33.1225 -8.40413
672 1 5.99948 2.02534 31.6267 -8.81376
673 1 8.01037 0.985317 33.2434 -8.58479
674 1 9.01423 2.98391 31.6351 -8.79643
675 1 1.08508 2.00639 33.3043 -8.82622
676 1 1.99915 4.01043 31.6546 -8.55833
677 1 3.91199 3.0076 33.2902 -8.79281
678 1 5.00205 5.0097 31.6647 -8.80322
679 1 7.00904 4.0342 33.2143 -8.73277
680 1 8.00923 6.01186 31.6567 -8.57263
681 1 0.000271999 5.00281 33.1225 -8.40413
682 1 0.995413 7.02941 31.6267 -8.81376
683 1 3.00631 5.98938 33.2434 -8.58479
684 1 4.01017 7.98797 31.6351 -8.79644
685 1 6.08914 7.01045 33.3043 -8.82622
686 1 7.00321 9.0145 31.6546 -8.55833
687 1 8.91606 8.01167 33.2902 -8.79281
688 1 2.00498 9.03826 33.2143 -8.73277
689 1 19.9783 9.99866 34.8049 -8.53485
690 1 3.26166 0.779245 35.058 -8.47287
691 1 4.41094 8.9671 37.2771 -8.42239
692 1 6.00209 2.02054 34.6654 -8.47643
693 1 9.97021 9.99866 34.8049 -8.53485
694 1 9.03496 2.97761 34.7157 -8.58519
695 1 1.1264 1.85753 36.3641 -8.77442
696 1 3.82219 3.06216 36.3362 -8.16246
697 1 5.53322 1.34441 37.1941 -8.24566
698 1 4.96615 4.9946 34.8049 -8.53485
699 1 6.88884 3.86546 36.3078 -8.44224
700 1 8.26573 5.78331 35.058 -8.47287
701 1 1.73569 4.28622 35.0962 -8.69209
702 1 0.998021 7.0246 34.6654 -8.47643
703 1 3.2303 6.20979 36.5751 -8.87165
704 1 4.03089 7.98167 34.7157 -8.58519
705 1 6.13046 6.86159 36.3641 -8.77442
706 1 6.73976 9.29029 35.0962 -8.69209
707 1 10.5373 6.34847 37.1941 -8.24566
708 1 1.88478 8.86953 36.3078 -8.44224
709 1 10.0081 0.005 5e-05 -7.15841
710 1 13.0106 1.00581 5e-05 -7.15841
711 1 15.0122 0.005 1.58247 -8.49339
712 1 16.013 2.00663 5e-05 -7.15841
713 1 18.0146 1.00581 1.58247 -8.49339
714 1 19.0154 3.00744 5e-05 -7.15841
715 1 11.0089 2.00663 1.58247 -8.49339
716 1 12.0098 4.00825 5e-05 -7.15841
717 1 14.0114 3.00744 1.58247 -8.49339
718 1 15.0122 5.00907 5e-05 -7.15841
719 1 17.0138 4.00825 1.58247 -8.49339
720 1 18.0146 6.00988 5e-05 -7.15841
721 1 10.0081 5.00907 1.58247 -8.49339
722 1 11.0089 7.01069 5e-05 -7.15841
723 1 13.0106 6.00988 1.58247 -8.49339
724 1 14.0114 8.01151 5e-05 -7.15841
725 1 16.013 7.01069 1.58247 -8.49339
726 1 17.0138 9.01232 5e-05 -7.15841
727 1 19.0154 8.01151 1.58247 -8.49339
728 1 12.0098 9.01232 1.58247 -8.49339
729 1 10.0081 0.005 3.1649 -8.75999
730 1 13.0106 1.00581 3.1649 -8.75999
731 1 15.0122 0.005 4.74732 -8.75999
732 1 16.013 2.00663 3.1649 -8.75999
733 1 18.0146 1.00581 4.74732 -8.75999
734 1 19.0154 3.00744 3.1649 -8.75999
735 1 11.0089 2.00663 4.74732 -8.75999
736 1 12.0098 4.00825 3.1649 -8.75999
737 1 14.0114 3.00744 4.74732 -8.75999
738 1 15.0122 5.00907 3.1649 -8.75999
739 1 17.0138 4.00825 4.74732 -8.75999
740 1 18.0146 6.00988 3.1649 -8.75999
741 1 10.0081 5.00907 4.74732 -8.75999
742 1 11.0089 7.01069 3.1649 -8.75999
743 1 13.0106 6.00988 4.74732 -8.75999
744 1 14.0114 8.01151 3.1649 -8.75999
745 1 16.013 7.01069 4.74732 -8.75999
746 1 17.0138 9.01232 3.1649 -8.75999
747 1 19.0154 8.01151 4.74732 -8.75999
748 1 12.0098 9.01232 4.74732 -8.75999
749 1 10.0081 0.005 6.32975 -8.75999
750 1 13.0106 1.00581 6.32975 -8.75999
751 1 15.0122 0.005 7.91217 -8.75999
752 1 16.013 2.00663 6.32975 -8.75999
753 1 18.0146 1.00581 7.91217 -8.75999
754 1 19.0154 3.00744 6.32975 -8.75999
755 1 11.0089 2.00663 7.91217 -8.75999
756 1 12.0098 4.00825 6.32975 -8.75999
757 1 14.0114 3.00744 7.91217 -8.75999
758 1 15.0122 5.00907 6.32975 -8.75999
759 1 17.0138 4.00825 7.91217 -8.75999
760 1 18.0146 6.00988 6.32975 -8.75999
761 1 10.0081 5.00907 7.91217 -8.75999
762 1 11.0089 7.01069 6.32975 -8.75999
763 1 13.0106 6.00988 7.91217 -8.75999
764 1 14.0114 8.01151 6.32975 -8.75999
765 1 16.013 7.01069 7.91217 -8.75999
766 1 17.0138 9.01232 6.32975 -8.75999
767 1 19.0154 8.01151 7.91217 -8.75999
768 1 12.0098 9.01232 7.91217 -8.75999
769 1 10.0081 0.005 9.4946 -8.75999
770 1 13.0106 1.00581 9.4946 -8.75999
771 1 15.0122 0.005 11.077 -8.75999
772 1 16.013 2.00663 9.4946 -8.75999
773 1 18.0146 1.00581 11.077 -8.75999
774 1 19.0154 3.00744 9.4946 -8.75999