ITEM: TIMESTEP
0
ITEM: NUMBER OF ATOMS
472
ITEM: BOX BOUNDS pp pp ss
0.0000000000000000e+00 1.0008131290506235e+01
0.0000000000000000e+00 1.0008131290506235e+01
-7.3245617200455226e-03 7.3613713916192907e+01
ITEM: ATOMS id type x y z c_eng
1 1 3.07182 1.01456 38.1963 -8.32913
2 1 5.54666 1.15019 37.2205 -8.38844
3 1 6.88448 8.97744 38.3761 -8.88801
4 1 1.88042 3.97337 38.3761 -8.88801
5 1 4.66051 3.28284 38.8578 -8.38629
6 1 7.51173 2.07096 38.8852 -8.27237
7 1 9.36551 3.66712 37.3755 -8.40981
8 1 0.353863 1.18412 38.7266 -8.55524
9 1 2.50767 7.07503 38.8852 -8.27237
10 1 5.35793 6.18819 38.7266 -8.55524
11 1 8.07588 6.01863 38.1963 -8.32913
12 1 9.66458 8.28691 38.8578 -8.38629
13 1 1.6628 9.28843 40.2543 -8.50223
14 1 2.52462 2.23636 40.4663 -8.54817
15 1 3.54507 0.198648 42.0166 -8.48511
16 1 5.45223 1.05592 40.242 -8.63234
17 1 6.53518 9.21312 42.0018 -8.46201
18 1 8.52255 0.165873 40.4539 -8.3579
19 1 1.53112 4.20905 42.0018 -8.46201
20 1 3.51849 5.16994 40.4539 -8.3579
21 1 4.59374 3.18517 41.94 -8.80652
22 1 6.66686 4.28436 40.2543 -8.50223
23 1 7.52887 2.20974 41.9298 -8.86368
24 1 9.58673 3.2487 40.3154 -8.59354
25 1 0.529147 1.19617 41.9354 -8.7255
26 1 2.52481 7.2138 41.9298 -8.86368
27 1 4.58266 8.25277 40.3154 -8.59354
28 1 5.53321 6.20024 41.9354 -8.7255
29 1 7.52869 7.24042 40.4663 -8.54817
30 1 8.54914 5.20271 42.0166 -8.48511
31 1 0.448161 6.05998 40.242 -8.63234
32 1 9.59781 8.18924 41.94 -8.80652
33 1 1.54298 9.21072 43.5237 -8.68968
34 1 2.54595 2.20601 43.5567 -8.79212
35 1 3.54705 0.195758 45.1309 -8.78827
36 1 5.55 1.20088 43.5303 -8.65811
37 1 6.54388 9.20718 45.1311 -8.77457
38 1 8.55221 0.196044 43.5479 -8.80714
39 1 1.53981 4.20311 45.1311 -8.77457
40 1 3.54815 5.20011 43.5479 -8.80714
41 1 4.55066 3.20004 45.1196 -8.75028
42 1 6.54704 4.20665 43.5237 -8.68968
43 1 7.54654 2.20143 45.1153 -8.75336
44 1 9.54465 3.18839 43.5319 -8.72226
45 1 0.544015 1.19787 45.1196 -8.74665
46 1 2.54247 7.2055 45.1153 -8.75336
47 1 4.54059 8.19245 43.5319 -8.72226
48 1 5.54808 6.20193 45.1196 -8.74665
49 1 7.55002 7.21008 43.5567 -8.79212
50 1 8.55111 5.19982 45.1309 -8.78827
51 1 0.545931 6.20495 43.5303 -8.65811
52 1 9.55473 8.20411 45.1196 -8.75028
53 1 1.54368 9.20542 46.7023 -8.75292
54 1 2.54539 2.20029 46.7082 -8.7666
55 1 3.5459 0.197428 48.2886 -8.76445
56 1 5.54778 1.20041 46.7047 -8.75211
57 1 6.54738 9.20568 48.289 -8.7637
58 1 8.54994 0.198431 46.7051 -8.76732
59 1 1.54331 4.20161 48.289 -8.7637
60 1 3.54587 5.2025 46.7051 -8.76732
61 1 4.54678 3.20088 48.2872 -8.75811
62 1 6.54775 4.20135 46.7023 -8.75292
63 1 7.54856 2.19986 48.2862 -8.75696
64 1 9.54932 3.19766 46.7044 -8.75421
65 1 0.543449 1.19838 48.2871 -8.75826
66 1 2.5445 7.20392 48.2862 -8.75696
67 1 4.54526 8.20173 46.7044 -8.75421
68 1 5.54751 6.20244 48.2871 -8.75826
69 1 7.54945 7.20436 46.7082 -8.7666
70 1 8.54996 5.20149 48.2886 -8.76445
71 1 0.543719 6.20447 46.7047 -8.75211
72 1 9.55084 8.20495 48.2872 -8.75811
73 1 1.54399 9.20524 49.8695 -8.75876
74 1 2.5449 2.19967 49.8705 -8.76133
75 1 3.54563 0.197889 51.4525 -8.76054
76 1 5.54725 1.19917 49.87 -8.75946
77 1 6.54796 9.20539 51.4526 -8.76061
78 1 8.54965 0.198188 49.8698 -8.76044
79 1 1.5439 4.20133 51.4526 -8.76061
80 1 3.54559 5.20225 49.8698 -8.76044
81 1 4.54646 3.20058 51.4524 -8.75977
82 1 6.54806 4.20118 49.8695 -8.75876
83 1 7.54882 2.19966 51.4522 -8.75942
84 1 9.55033 3.19995 49.8699 -8.75943
85 1 0.543191 1.1987 51.4523 -8.75979
86 1 2.54475 7.20373 51.4522 -8.75942
87 1 4.54627 8.20401 49.8699 -8.75943
88 1 5.54726 6.20277 51.4523 -8.75979
89 1 7.54897 7.20374 49.8705 -8.76133
90 1 8.5497 5.20195 51.4525 -8.76054
91 1 0.543187 6.20324 49.87 -8.75946
92 1 9.55053 8.20464 51.4524 -8.75977
93 1 1.54397 9.20532 53.0348 -8.75977
94 1 2.54479 2.19963 53.0348 -8.76023
95 1 3.5456 0.198005 54.6172 -8.76004
96 1 5.54723 1.19882 53.0348 -8.75999
97 1 6.54804 9.20532 54.6172 -8.76007
98 1 8.54967 0.198005 53.0348 -8.75995
99 1 1.54397 4.20126 54.6172 -8.76007
100 1 3.5456 5.20207 53.0348 -8.75995
101 1 4.54641 3.20044 54.6172 -8.75998
102 1 6.54804 4.20126 53.0348 -8.75977
103 1 7.54885 2.19963 54.6172 -8.75992
104 1 9.55048 3.20044 53.0348 -8.75997
105 1 0.543161 1.19882 54.6172 -8.75997
106 1 2.54479 7.2037 54.6172 -8.75992
107 1 4.54641 8.20451 53.0348 -8.75997
108 1 5.54723 6.20288 54.6172 -8.75997
109 1 7.54885 7.2037 53.0348 -8.76023
110 1 8.54967 5.20207 54.6172 -8.76004
111 1 0.543161 6.20288 53.0348 -8.75999
112 1 9.55048 8.20451 54.6172 -8.75998
113 1 1.54397 9.20532 56.1997 -8.75999
114 1 2.54479 2.19963 56.1997 -8.75999
115 1 3.5456 0.198005 57.7821 -8.75999
116 1 5.54723 1.19882 56.1997 -8.75999
117 1 6.54804 9.20532 57.7821 -8.75999
118 1 8.54967 0.198005 56.1997 -8.75999
119 1 1.54397 4.20126 57.7821 -8.75999
120 1 3.5456 5.20207 56.1997 -8.75999
121 1 4.54641 3.20044 57.7821 -8.75999
122 1 6.54804 4.20126 56.1997 -8.75999
123 1 7.54885 2.19963 57.7821 -8.75999
124 1 9.55048 3.20044 56.1997 -8.75999
125 1 0.543161 1.19882 57.7821 -8.75999
126 1 2.54479 7.2037 57.7821 -8.75999
127 1 4.54641 8.20451 56.1997 -8.75999
128 1 5.54723 6.20288 57.7821 -8.75999
129 1 7.54885 7.2037 56.1997 -8.75999
130 1 8.54967 5.20207 57.7821 -8.75999
131 1 0.543161 6.20288 56.1997 -8.75999
132 1 9.55048 8.20451 57.7821 -8.75999
133 1 1.54397 9.20532 59.3645 -8.75999
134 1 2.54479 2.19963 59.3645 -8.75999
135 1 3.5456 0.198005 60.9469 -8.75999
136 1 5.54723 1.19882 59.3645 -8.75999
137 1 6.54804 9.20532 60.9469 -8.75999
138 1 8.54967 0.198005 59.3645 -8.75999
139 1 1.54397 4.20126 60.9469 -8.75999
140 1 3.5456 5.20207 59.3645 -8.75999
141 1 4.54641 3.20044 60.9469 -8.75999
142 1 6.54804 4.20126 59.3645 -8.75999
143 1 7.54885 2.19963 60.9469 -8.75999
144 1 9.55048 3.20044 59.3645 -8.75999
145 1 0.543161 1.19882 60.9469 -8.75999
146 1 2.54479 7.2037 60.9469 -8.75999
147 1 4.54641 8.20451 59.3645 -8.75999
148 1 5.54723 6.20288 60.9469 -8.75999
149 1 7.54885 7.2037 59.3645 -8.75999
150 1 8.54967 5.20207 60.9469 -8.75999
151 1 0.543161 6.20288 59.3645 -8.75999
152 1 9.55048 8.20451 60.9469 -8.75999
153 1 1.54397 9.20532 62.5294 -8.75999
154 1 2.54479 2.19963 62.5294 -8.75999
155 1 3.5456 0.198005 64.1118 -8.75999
156 1 5.54723 1.19882 62.5294 -8.75999
157 1 6.54804 9.20532 64.1118 -8.75999
158 1 8.54967 0.198005 62.5294 -8.75999
159 1 1.54397 4.20126 64.1118 -8.75999
160 1 3.5456 5.20207 62.5294 -8.75999
161 1 4.54641 3.20044 64.1118 -8.75999
162 1 6.54804 4.20126 62.5294 -8.75999
163 1 7.54885 2.19963 64.1118 -8.75999
164 1 9.55048 3.20044 62.5294 -8.75999
165 1 0.543161 1.19882 64.1118 -8.75999
166 1 2.54479 7.2037 64.1118 -8.75999
167 1 4.54641 8.20451 62.5294 -8.75999
168 1 5.54723 6.20288 64.1118 -8.75999
169 1 7.54885 7.2037 62.5294 -8.75999
170 1 8.54967 5.20207 64.1118 -8.75999
171 1 0.543161 6.20288 62.5294 -8.75999
172 1 9.55048 8.20451 64.1118 -8.75999
173 1 1.54397 9.20532 65.6942 -8.75999
174 1 2.54479 2.19963 65.6942 -8.75999
175 1 3.5456 0.198005 67.2766 -8.75999
176 1 5.54723 1.19882 65.6942 -8.75999
177 1 6.54804 9.20532 67.2766 -8.75999
178 1 8.54967 0.198005 65.6942 -8.75999
179 1 1.54397 4.20126 67.2766 -8.75999
180 1 3.5456 5.20207 65.6942 -8.75999
181 1 4.54641 3.20044 67.2766 -8.75999
182 1 6.54804 4.20126 65.6942 -8.75999
183 1 7.54885 2.19963 67.2766 -8.75999
184 1 9.55048 3.20044 65.6942 -8.75999
185 1 0.543161 1.19882 67.2766 -8.75999
186 1 2.54479 7.2037 67.2766 -8.75999
187 1 4.54641 8.20451 65.6942 -8.75999
188 1 5.54723 6.20288 67.2766 -8.75999
189 1 7.54885 7.2037 65.6942 -8.75999
190 1 8.54967 5.20207 67.2766 -8.75999
191 1 0.543161 6.20288 65.6942 -8.75999
192 1 9.55048 8.20451 67.2766 -8.75999
193 1 1.54397 9.20532 68.8591 -8.75999
194 1 2.54479 2.19963 68.8591 -8.75999
195 1 3.5456 0.198005 70.4415 -8.75999
196 1 5.54723 1.19882 68.8591 -8.75999
197 1 6.54804 9.20532 70.4415 -8.75999
198 1 8.54967 0.198005 68.8591 -8.75999
199 1 1.54397 4.20126 70.4415 -8.75999
200 1 3.5456 5.20207 68.8591 -8.75999
201 1 4.54641 3.20044 70.4415 -8.75999
202 1 6.54804 4.20126 68.8591 -8.75999
203 1 7.54885 2.19963 70.4415 -8.75999
204 1 9.55048 3.20044 68.8591 -8.75999
205 1 0.543161 1.19882 70.4415 -8.75999
206 1 2.54479 7.2037 70.4415 -8.75999
207 1 4.54641 8.20451 68.8591 -8.75999
208 1 5.54723 6.20288 70.4415 -8.75999
209 1 7.54885 7.2037 68.8591 -8.75999
210 1 8.54967 5.20207 70.4415 -8.75999
211 1 0.543161 6.20288 68.8591 -8.75999
212 1 9.55048 8.20451 70.4415 -8.75999
213 1 1.54397 9.20532 72.0239 -8.49339
214 1 2.54479 2.19963 72.0239 -8.49339
215 1 3.5456 0.198005 73.6063 -7.15841
216 1 5.54723 1.19882 72.0239 -8.49339
217 1 6.54804 9.20532 73.6063 -7.15841
218 1 8.54967 0.198005 72.0239 -8.49339
219 1 1.54397 4.20126 73.6063 -7.15841
220 1 3.5456 5.20207 72.0239 -8.49339
221 1 4.54641 3.20044 73.6063 -7.15841
222 1 6.54804 4.20126 72.0239 -8.49339
223 1 7.54885 2.19963 73.6063 -7.15841
224 1 9.55048 3.20044 72.0239 -8.49339
225 1 0.543161 1.19882 73.6063 -7.15841
226 1 2.54479 7.2037 73.6063 -7.15841
227 1 4.54641 8.20451 72.0239 -8.49339
228 1 5.54723 6.20288 73.6063 -7.15841
229 1 7.54885 7.2037 72.0239 -8.49339
230 1 8.54967 5.20207 73.6063 -7.15841
231 1 0.543161 6.20288 72.0239 -8.49339
232 1 9.55048 8.20451 73.6063 -7.15841
233 1 0 0.005 5e-05 -7.15841
234 1 3.00244 1.00581 5e-05 -7.15841
235 1 5.00407 0.005 1.58247 -8.49339
236 1 6.00488 2.00663 5e-05 -7.15841
237 1 8.00651 1.00581 1.58247 -8.49339
238 1 9.00732 3.00744 5e-05 -7.15841
239 1 1.00081 2.00663 1.58247 -8.49339
240 1 2.00163 4.00825 5e-05 -7.15841
241 1 4.00325 3.00744 1.58247 -8.49339
242 1 5.00407 5.00907 5e-05 -7.15841
243 1 7.00569 4.00825 1.58247 -8.49339
244 1 8.00651 6.00988 5e-05 -7.15841
245 1 0 5.00907 1.58247 -8.49339
246 1 1.00081 7.01069 5e-05 -7.15841
247 1 3.00244 6.00988 1.58247 -8.49339
248 1 4.00325 8.01151 5e-05 -7.15841
249 1 6.00488 7.01069 1.58247 -8.49339
250 1 7.00569 9.01232 5e-05 -7.15841
251 1 9.00732 8.01151 1.58247 -8.49339
252 1 2.00163 9.01232 1.58247 -8.49339
253 1 0 0.005 3.1649 -8.75999
254 1 3.00244 1.00581 3.1649 -8.75999
255 1 5.00407 0.005 4.74732 -8.75999
256 1 6.00488 2.00663 3.1649 -8.75999
257 1 8.00651 1.00581 4.74732 -8.75999
258 1 9.00732 3.00744 3.1649 -8.75999
259 1 1.00081 2.00663 4.74732 -8.75999
260 1 2.00163 4.00825 3.1649 -8.75999
261 1 4.00325 3.00744 4.74732 -8.75999
262 1 5.00407 5.00907 3.1649 -8.75999
263 1 7.00569 4.00825 4.74732 -8.75999
264 1 8.00651 6.00988 3.1649 -8.75999
265 1 0 5.00907 4.74732 -8.75999
266 1 1.00081 7.01069 3.1649 -8.75999
267 1 3.00244 6.00988 4.74732 -8.75999
268 1 4.00325 8.01151 3.1649 -8.75999
269 1 6.00488 7.01069 4.74732 -8.75999
270 1 7.00569 9.01232 3.1649 -8.75999
271 1 9.00732 8.01151 4.74732 -8.75999
272 1 2.00163 9.01232 4.74732 -8.75999
273 1 0 0.005 6.32975 -8.75999
274 1 3.00244 1.00581 6.32975 -8.75999
275 1 5.00407 0.005 7.91217 -8.75999
276 1 6.00488 2.00663 6.32975 -8.75999
277 1 8.00651 1.00581 7.91217 -8.75999
278 1 9.00732 3.00744 6.32975 -8.75999
279 1 1.00081 2.00663 7.91217 -8.75999
280 1 2.00163 4.00825 6.32975 -8.75999
281 1 4.00325 3.00744 7.91217 -8.75999
282 1 5.00407 5.00907 6.32975 -8.75999
283 1 7.00569 4.00825 7.91217 -8.75999
284 1 8.00651 6.00988 6.32975 -8.75999
285 1 0 5.00907 7.91217 -8.75999
286 1 1.00081 7.01069 6.32975 -8.75999
287 1 3.00244 6.00988 7.91217 -8.75999
288 1 4.00325 8.01151 6.32975 -8.75999
289 1 6.00488 7.01069 7.91217 -8.75999
290 1 7.00569 9.01232 6.32975 -8.75999
291 1 9.00732 8.01151 7.91217 -8.75999
292 1 2.00163 9.01232 7.91217 -8.75999
293 1 0 0.005 9.4946 -8.75999
294 1 3.00244 1.00581 9.4946 -8.75999
295 1 5.00407 0.005 11.077 -8.75999
296 1 6.00488 2.00663 9.4946 -8.75999
297 1 8.00651 1.00581 11.077 -8.75999
298 1 9.00732 3.00744 9.4946 -8.75999
299 1 1.00081 2.00663 11.077 -8.75999
300 1 2.00163 4.00825 9.4946 -8.75999
301 1 4.00325 3.00744 11.077 -8.75999
302 1 5.00407 5.00907 9.4946 -8.75999
303 1 7.00569 4.00825 11.077 -8.75999
304 1 8.00651 6.00988 9.4946 -8.75999
305 1 0 5.00907 11.077 -8.75999
306 1 1.00081 7.01069 9.4946 -8.75999
307 1 3.00244 6.00988 11.077 -8.75999
308 1 4.00325 8.01151 9.4946 -8.75999
309 1 6.00488 7.01069 11.077 -8.75999
310 1 7.00569 9.01232 9.4946 -8.75999
311 1 9.00732 8.01151 11.077 -8.75999
312 1 2.00163 9.01232 11.077 -8.75999
313 1 0 0.005 12.6594 -8.75999
314 1 3.00244 1.00581 12.6594 -8.75999
315 1 5.00407 0.005 14.2419 -8.75999
316 1 6.00488 2.00663 12.6594 -8.75999
317 1 8.00651 1.00581 14.2419 -8.75999
318 1 9.00732 3.00744 12.6594 -8.75999
319 1 1.00081 2.00663 14.2419 -8.75999
320 1 2.00163 4.00825 12.6594 -8.75999
321 1 4.00325 3.00744 14.2419 -8.75999
322 1 5.00407 5.00907 12.6594 -8.75999
323 1 7.00569 4.00825 14.2419 -8.75999
324 1 8.00651 6.00988 12.6594 -8.75999
325 1 0 5.00907 14.2419 -8.75999
326 1 1.00081 7.01069 12.6594 -8.75999
327 1 3.00244 6.00988 14.2419 -8.75999
328 1 4.00325 8.01151 12.6594 -8.75999
329 1 6.00488 7.01069 14.2419 -8.75999
330 1 7.00569 9.01232 12.6594 -8.75999
331 1 9.00732 8.01151 14.2419 -8.75999
332 1 2.00163 9.01232 14.2419 -8.75999
333 1 0 0.005 15.8243 -8.75999
334 1 3.00244 1.00581 15.8243 -8.75999
335 1 5.00407 0.005 17.4067 -8.75999
336 1 6.00488 2.00663 15.8243 -8.75999
337 1 8.00651 1.00581 17.4067 -8.75999
338 1 9.00732 3.00744 15.8243 -8.75999
339 1 1.00081 2.00663 17.4067 -8.75999
340 1 2.00163 4.00825 15.8243 -8.75999
341 1 4.00325 3.00744 17.4067 -8.75999
342 1 5.00407 5.00907 15.8243 -8.75999
343 1 7.00569 4.00825 17.4067 -8.75999
344 1 8.00651 6.00988 15.8243 -8.75999
345 1 0 5.00907 17.4067 -8.75999
346 1 1.00081 7.01069 15.8243 -8.75999
347 1 3.00244 6.00988 17.4067 -8.75999
348 1 4.00325 8.01151 15.8243 -8.75999
349 1 6.00488 7.01069 17.4067 -8.75999
350 1 7.00569 9.01232 15.8243 -8.75999
351 1 9.00732 8.01151 17.4067 -8.75999
352 1 2.00163 9.01232 17.4067 -8.75999
353 1 0 0.005 18.9891 -8.75992
354 1 3.00244 1.00581 18.9891 -8.76005
355 1 5.00407 0.005 20.5716 -8.76028
356 1 6.00488 2.00663 18.9891 -8.75999
357 1 8.00651 1.00581 20.5716 -8.75983
358 1 9.00732 3.00744 18.9891 -8.76001
359 1 1.00081 2.00663 20.5716 -8.75994
360 1 2.00163 4.00825 18.9891 -8.76001
361 1 4.00325 3.00744 20.5716 -8.75987
362 1 5.00407 5.00907 18.9891 -8.75992
363 1 7.00569 4.00825 20.5716 -8.76003
364 1 8.00651 6.00988 18.9891 -8.76005
365 1 0 5.00907 20.5716 -8.76028
366 1 1.00081 7.01069 18.9891 -8.75999
367 1 3.00244 6.00988 20.5716 -8.75983
368 1 4.00325 8.01151 18.9891 -8.76001
369 1 6.00488 7.01069 20.5716 -8.75994
370 1 7.00569 9.01232 18.9891 -8.76001
371 1 9.00732 8.01151 20.5716 -8.75987
372 1 2.00163 9.01232 20.5716 -8.76003
373 1 10.0081 0.00502958 22.1542 -8.7595
374 1 3.00241 1.00593 22.1538 -8.76037
375 1 5.00409 0.00490322 23.7358 -8.76168
376 1 6.00495 2.00665 22.154 -8.75994
377 1 8.00646 1.00568 23.7368 -8.75916
378 1 9.00723 3.00734 22.154 -8.76001
379 1 1.0006 2.00652 23.7365 -8.75927
380 1 2.00172 4.00817 22.1539 -8.76022
381 1 4.00358 3.00764 23.7367 -8.75886
382 1 5.00402 5.0091 22.1542 -8.7595
383 1 7.00561 4.00839 23.7364 -8.76072
384 1 8.00647 6.01 22.1538 -8.76037
385 1 2.01401e-05 5.00897 23.7358 -8.76168
386 1 1.00088 7.01072 22.154 -8.75994
387 1 3.00239 6.00974 23.7368 -8.75916
388 1 4.00317 8.01141 22.154 -8.76001
389 1 6.00466 7.01059 23.7365 -8.75927
390 1 7.00579 9.01224 22.1539 -8.76022
391 1 9.00765 8.0117 23.7367 -8.75886
392 1 2.00154 9.01246 23.7364 -8.76072
393 1 10.0078 0.00515406 25.3202 -8.75781
394 1 3.0023 1.00661 25.3179 -8.76193
395 1 5.00383 0.00454918 26.8976 -8.76887
396 1 6.00505 2.00676 25.3189 -8.75942
397 1 8.00594 1.00554 26.9033 -8.75591
398 1 9.00712 3.00683 25.3187 -8.7594
399 1 0.999982 2.00576 26.9023 -8.75316
400 1 2.00209 4.00778 25.3184 -8.76212
401 1 4.00473 3.00862 26.9032 -8.751
402 1 5.00378 5.00922 25.3202 -8.75781
403 1 7.00585 4.00867 26.9004 -8.76709
404 1 8.00636 6.01068 25.3179 -8.76193
405 1 10.0079 5.00861 26.8976 -8.76887
406 1 1.00098 7.01082 25.3189 -8.75942
407 1 3.00187 6.0096 26.9033 -8.75591
408 1 4.00305 8.01089 25.3187 -8.7594
409 1 6.00405 7.00983 26.9023 -8.75316
410 1 7.00615 9.01185 25.3184 -8.76212
411 1 9.0088 8.01269 26.9032 -8.751
412 1 2.00178 9.01274 26.9004 -8.76709
413 1 10.0064 0.00548322 28.4901 -8.75807
414 1 3.00162 1.01025 28.4787 -8.76472
415 1 5.00096 0.00392477 30.0452 -8.79516
416 1 6.00422 2.00816 28.4845 -8.75715
417 1 8.00252 1.00562 30.0768 -8.7294
418 1 9.00862 3.00269 28.4837 -8.75378
419 1 1.00181 2.00181 30.0767 -8.70539
420 1 2.00347 4.00651 28.4801 -8.77435
421 1 4.00485 3.01319 30.0817 -8.69324
422 1 5.00236 5.00955 28.4901 -8.75807
423 1 7.01026 4.0088 30.0558 -8.79795
424 1 8.00568 6.01431 28.4787 -8.76472
425 1 10.005 5.00799 30.0452 -8.79516
426 1 1.00015 7.01223 28.4845 -8.75715
427 1 2.99846 6.00968 30.0768 -8.7294
428 1 4.00456 8.00675 28.4837 -8.75378
429 1 6.00587 7.00587 30.0767 -8.70539
430 1 7.00754 9.01058 28.4801 -8.77435
431 1 9.00892 8.01726 30.0817 -8.69324
432 1 2.00619 9.01287 30.0558 -8.79795
433 1 10.003 0.00567218 31.6693 -8.83515
434 1 3.00478 1.01817 31.6266 -8.49459
435 1 4.99676 0.0167976 33.1209 -8.44211
436 1 5.997 2.02642 31.6528 -8.78843
437 1 7.99749 0.945184 33.2943 -8.69781
438 1 9.02255 2.97076 31.654 -8.77277
439 1 1.10029 2.03307 33.317 -8.7507
440 1 1.99816 4.01186 31.621 -8.50896
441 1 3.87658 3.00775 33.3447 -8.72512
442 1 4.99898 5.00974 31.6693 -8.83515
443 1 7.03907 4.02706 33.1548 -8.35521
444 1 8.00885 6.02224 31.6266 -8.49459
445 1 10.0008 5.02086 33.1209 -8.44211
446 1 0.992937 7.03049 31.6528 -8.78843
447 1 2.99342 5.94925 33.2943 -8.69781
448 1 4.01848 7.97482 31.654 -8.77277
449 1 6.10436 7.03714 33.317 -8.7507
450 1 7.00222 9.01592 31.621 -8.50896
451 1 8.88064 8.01182 33.3447 -8.72512
452 1 2.035 9.03112 33.1548 -8.35521
453 1 0.152793 0.00224348 34.7607 -8.18684
454 1 3.3402 0.639511 35.1603 -8.76996
455 1 4.36145 8.67119 37.3755 -8.40981
456 1 6.01973 2.11238 34.7646 -8.69013
457 1 8.25158 1.05238 36.5091 -8.55452
458 1 8.93517 2.95735 34.7825 -8.51986
459 1 1.18692 1.87897 36.3083 -8.32546
460 1 1.48395 4.30787 35.2093 -8.46835
461 1 3.78656 3.175 36.2866 -8.50176
462 1 5.15686 5.00631 34.7607 -8.18684
463 1 6.67121 3.902 36.9292 -8.78372
464 1 8.34426 5.64358 35.1603 -8.76996
465 1 0.542591 6.15426 37.2205 -8.38844
466 1 1.01567 7.11645 34.7646 -8.69013
467 1 3.24751 6.05645 36.5091 -8.55452
468 1 3.9311 7.96141 34.7825 -8.51986
469 1 6.19098 6.88304 36.3083 -8.32546
470 1 6.48801 9.31194 35.2093 -8.46835
471 1 8.79062 8.17907 36.2866 -8.50176
472 1 1.66714 8.90607 36.9292 -8.78372
Egb = 2.29691598776671
