ITEM: TIMESTEP
0
ITEM: NUMBER OF ATOMS
2460
ITEM: BOX BOUNDS pp pp ss
0.0000000000000000e+00 1.6166771477323479e+01
0.0000000000000000e+00 2.5305000000000000e+01
-7.0313721807485482e-03 7.0518613751782908e+01
ITEM: ATOMS id type x y z c_eng
1 1 1.62182 1.51742 35.6886 -3.44479
2 1 3.96254 1.77079 36.777 -3.31362
3 1 6.47464 1.86573 37.4086 -3.45591
4 1 8.93324 1.83419 38.1814 -3.51649
5 1 2.4293 3.67047 37.0672 -3.56701
6 1 4.82621 3.68306 38.1371 -3.51646
7 1 7.26871 3.65859 38.9405 -3.52333
8 1 3.23249 1.82298 39.0505 -3.48796
9 1 5.65432 1.82794 39.7745 -3.54651
10 1 8.08249 1.82663 40.581 -3.5483
11 1 1.65008 3.6254 39.7714 -3.51862
12 1 4.06045 3.64051 40.5994 -3.5274
13 1 6.47736 3.62793 41.3925 -3.53796
14 1 8.89987 3.62065 42.2096 -3.54068
15 1 2.43071 1.82121 41.4301 -3.5328
16 1 4.85742 1.82046 42.2095 -3.54169
17 1 7.28144 1.81726 43.0175 -3.54087
18 1 3.23858 3.62842 43.0247 -3.53954
19 1 5.55912 3.46286 35.7176 -3.51141
20 1 8.11662 3.50943 36.4877 -3.48813
21 1 1.61637 1.81922 43.8414 -3.53874
22 1 4.04439 1.81677 44.6382 -3.5411
23 1 6.46968 1.81398 45.4464 -3.54067
24 1 8.89202 1.81052 46.2605 -3.53988
25 1 2.4258 3.62257 45.4518 -3.53961
26 1 4.85262 3.61971 46.2572 -3.54025
27 1 7.27731 3.61913 47.0673 -3.54013
28 1 3.23415 1.81392 47.0665 -3.54037
29 1 5.65959 1.8127 47.8748 -3.54021
30 1 8.08365 1.81182 48.6857 -3.53995
31 1 1.6167 3.62053 47.878 -3.5398
32 1 4.04257 3.61919 48.6849 -3.54013
33 1 6.46748 3.61928 49.4938 -3.54008
34 1 8.89166 3.62001 50.3032 -3.53996
35 1 2.42534 1.81272 49.4938 -3.54019
36 1 4.85035 1.81244 50.3021 -3.54015
37 1 7.27503 1.81251 51.1114 -3.53995
38 1 3.23334 3.62001 51.1114 -3.54002
39 1 5.66439 3.62274 43.8269 -3.54082
40 1 8.08825 3.62016 44.6401 -3.54046
41 1 1.61666 1.81251 51.9197 -3.54003
42 1 4.04168 1.81251 52.7281 -3.54
43 1 6.46669 1.81251 53.5364 -3.53995
44 1 8.89171 1.81251 54.3448 -3.54
45 1 2.425 3.62001 53.5364 -3.53999
46 1 4.85002 3.62001 54.3448 -3.53999
47 1 7.27503 3.62001 55.1531 -3.54
48 1 3.23334 1.81251 55.1531 -3.54
49 1 5.65836 1.81251 55.9614 -3.54
50 1 8.08337 1.81251 56.7698 -3.54
51 1 1.61666 3.62001 55.9614 -3.54
52 1 4.04168 3.62001 56.7698 -3.54
53 1 6.46669 3.62001 57.5781 -3.54
54 1 8.89171 3.62001 58.3865 -3.54
55 1 2.425 1.81251 57.5781 -3.54
56 1 4.85002 1.81251 58.3865 -3.54
57 1 7.27503 1.81251 59.1948 -3.54
58 1 3.23334 3.62001 59.1948 -3.54
59 1 5.65836 3.62001 51.9197 -3.54
60 1 8.08337 3.62001 52.7281 -3.53996
61 1 1.61666 1.81251 60.0031 -3.54
62 1 4.04168 1.81251 60.8115 -3.54
63 1 6.46669 1.81251 61.6198 -3.54
64 1 8.89171 1.81251 62.4281 -3.54
65 1 2.425 3.62001 61.6198 -3.54
66 1 4.85002 3.62001 62.4281 -3.54
67 1 7.27503 3.62001 63.2365 -3.54
68 1 3.23334 1.81251 63.2365 -3.54
69 1 5.65836 1.81251 64.0448 -3.54
70 1 8.08337 1.81251 64.8532 -3.54
71 1 1.61666 3.62001 64.0448 -3.54
72 1 4.04168 3.62001 64.8532 -3.54
73 1 6.46669 3.62001 65.6615 -3.54
74 1 8.89171 3.62001 66.4698 -3.54048
75 1 2.425 1.81251 65.6615 -3.54
76 1 4.85002 1.81251 66.4698 -3.54048
77 1 7.27503 1.81251 67.2782 -3.53371
78 1 3.23334 3.62001 67.2782 -3.53371
79 1 5.65836 3.62001 60.0031 -3.54
80 1 8.08337 3.62001 60.8115 -3.54
81 1 1.61666 1.81251 68.0865 -3.50249
82 1 4.04168 1.81251 68.8949 -3.39542
83 1 6.46669 1.81251 69.7032 -3.14502
84 1 8.89171 1.81251 70.5115 -2.6938
85 1 2.425 3.62001 69.7032 -3.14502
86 1 4.85002 3.62001 70.5115 -2.6938
87 1 5.65836 3.62001 68.0865 -3.50249
88 1 8.08337 3.62001 68.8949 -3.39542
89 1 1.50182 5.66064 35.6904 -3.49289
90 1 4.02959 5.57101 36.4898 -3.49171
91 1 6.47736 5.40008 37.1006 -3.56221
92 1 8.89041 5.38812 38.1328 -3.52804
93 1 2.42397 7.21868 37.4083 -3.45697
94 1 4.91664 7.22438 38.1557 -3.52649
95 1 7.26335 7.23639 39.0511 -3.48867
96 1 3.2348 5.41442 38.9453 -3.51737
97 1 5.67547 5.42729 39.7465 -3.52371
98 1 8.09689 5.42145 40.5953 -3.53226
99 1 1.59938 7.22184 39.7803 -3.544
100 1 4.04191 7.21837 40.5774 -3.54905
101 1 6.46043 7.23164 41.4226 -3.53396
102 1 8.88792 7.24206 42.2135 -3.54125
103 1 2.42785 5.42798 41.3969 -3.53918
104 1 4.85932 5.4298 42.2059 -3.53936
105 1 7.2821 5.42609 43.0237 -3.53986
106 1 3.23484 7.22452 43.0223 -3.54064
107 1 7.99351 7.28803 36.7776 -3.31606
108 1 1.61631 5.42641 43.832 -3.5401
109 1 4.04519 5.42579 44.6414 -3.5397
110 1 6.47037 5.4253 45.4513 -3.53984
111 1 8.89274 5.42935 46.2614 -3.53986
112 1 2.4257 7.23008 45.452 -3.54021
113 1 4.85048 7.23157 46.2633 -3.53935
114 1 7.2753 7.23463 47.0694 -3.5402
115 1 3.23441 5.42575 47.0692 -3.53983
116 1 5.65976 5.4256 47.8773 -3.54001
117 1 8.08384 5.42755 48.6861 -3.54005
118 1 1.61689 7.23326 47.878 -3.54009
119 1 4.04185 7.23319 48.6871 -3.53979
120 1 6.4668 7.23428 49.4946 -3.5401
121 1 8.89172 7.23527 50.3031 -3.54002
122 1 2.42527 5.42674 49.4948 -3.53993
123 1 4.85037 5.42661 50.3028 -3.54006
124 1 7.27503 5.42751 51.1114 -3.54003
125 1 3.23334 7.23501 51.1114 -3.53995
126 1 5.65903 7.23012 43.8411 -3.53745
127 1 8.0836 7.23667 44.6433 -3.54014
128 1 1.61666 5.42751 51.9197 -3.53997
129 1 4.04168 5.42751 52.7281 -3.54002
130 1 6.46669 5.42751 53.5364 -3.53999
131 1 8.89171 5.42751 54.3448 -3.54
132 1 2.425 7.23501 53.5364 -3.54
133 1 4.85002 7.23501 54.3448 -3.54
134 1 7.27503 7.23501 55.1531 -3.54
135 1 3.23334 5.42751 55.1531 -3.54
136 1 5.65836 5.42751 55.9614 -3.54
137 1 8.08337 5.42751 56.7698 -3.54
138 1 1.61666 7.23501 55.9614 -3.54
139 1 4.04168 7.23501 56.7698 -3.54
140 1 6.46669 7.23501 57.5781 -3.54
141 1 8.89171 7.23501 58.3865 -3.54
142 1 2.425 5.42751 57.5781 -3.54
143 1 4.85002 5.42751 58.3865 -3.54
144 1 7.27503 5.42751 59.1948 -3.54
145 1 3.23334 7.23501 59.1948 -3.54
146 1 5.65836 7.23501 51.9197 -3.54005
147 1 8.08337 7.23501 52.7281 -3.54
148 1 1.61666 5.42751 60.0031 -3.54
149 1 4.04168 5.42751 60.8115 -3.54
150 1 6.46669 5.42751 61.6198 -3.54
151 1 8.89171 5.42751 62.4281 -3.54
152 1 2.425 7.23501 61.6198 -3.54
153 1 4.85002 7.23501 62.4281 -3.54
154 1 7.27503 7.23501 63.2365 -3.54
155 1 3.23334 5.42751 63.2365 -3.54
156 1 5.65836 5.42751 64.0448 -3.54
157 1 8.08337 5.42751 64.8532 -3.54
158 1 1.61666 7.23501 64.0448 -3.54
159 1 4.04168 7.23501 64.8532 -3.54
160 1 6.46669 7.23501 65.6615 -3.54
161 1 8.89171 7.23501 66.4698 -3.54048
162 1 2.425 5.42751 65.6615 -3.54
163 1 4.85002 5.42751 66.4698 -3.54048
164 1 7.27503 5.42751 67.2782 -3.53371
165 1 3.23334 7.23501 67.2782 -3.53371
166 1 5.65836 7.23501 60.0031 -3.54
167 1 8.08337 7.23501 60.8115 -3.54
168 1 1.61666 5.42751 68.0865 -3.50249
169 1 4.04168 5.42751 68.8949 -3.39542
170 1 6.46669 5.42751 69.7032 -3.14502
171 1 8.89171 5.42751 70.5115 -2.6938
172 1 2.425 7.23501 69.7032 -3.14502
173 1 4.85002 7.23501 70.5115 -2.6938
174 1 5.65836 7.23501 68.0865 -3.50249
175 1 8.08337 7.23501 68.8949 -3.39542
176 1 1.59054 8.79598 35.714 -3.49995
177 1 3.97741 9.0265 36.7212 -3.34277
178 1 6.4755 9.16307 37.4013 -3.47115
179 1 8.91069 9.1193 38.1691 -3.51594
180 1 2.409 10.866 37.1583 -3.53745
181 1 4.79788 10.8627 38.2291 -3.51659
182 1 7.27916 10.8688 39.0261 -3.51255
183 1 3.20237 9.04501 39.0309 -3.51012
184 1 5.64368 9.04903 39.8031 -3.54605
185 1 8.08152 9.0563 40.6043 -3.53978
186 1 1.62371 10.8435 39.7621 -3.53182
187 1 4.02756 10.8479 40.6421 -3.52905
188 1 6.45528 10.8503 41.4299 -3.53865
189 1 8.89512 10.8458 42.2139 -3.5425
190 1 2.41978 9.02953 41.4228 -3.53376
191 1 4.84273 9.03041 42.2252 -3.54057
192 1 7.27092 9.04301 43.0307 -3.53988
193 1 3.22705 10.8486 43.0417 -3.53769
194 1 5.56818 10.906 35.76 -3.47602
195 1 8.02982 10.8941 36.5108 -3.47755
196 1 1.61664 9.03624 43.838 -3.53932
197 1 4.03902 9.03597 44.6476 -3.54025
198 1 6.46438 9.04137 45.455 -3.53991
199 1 8.8911 9.04305 46.2606 -3.54006
200 1 2.42359 10.849 45.4572 -3.53936
201 1 4.84674 10.8486 46.2642 -3.54013
202 1 7.27359 10.8487 47.0707 -3.54
203 1 3.23268 9.03959 47.0711 -3.54001
204 1 5.65752 9.04122 47.8792 -3.53992
205 1 8.08311 9.04235 48.6865 -3.54001
206 1 1.61647 10.8498 47.879 -3.53983
207 1 4.04068 10.8492 48.6875 -3.54002
208 1 6.46619 10.8494 49.4954 -3.53995
209 1 8.8917 10.85 50.3032 -3.53993
210 1 2.4248 9.04166 49.4951 -3.53998
211 1 4.84985 9.04193 50.3034 -3.53994
212 1 7.27503 9.04251 51.1114 -3.54001
213 1 3.23334 10.85 51.1114 -3.54001
214 1 5.64958 10.8484 43.8426 -3.54064
215 1 8.08084 10.8475 44.6442 -3.54074
216 1 1.61666 9.04251 51.9197 -3.54001
217 1 4.04168 9.04251 52.7281 -3.54
218 1 6.46669 9.04251 53.5364 -3.54002
219 1 8.89171 9.04251 54.3448 -3.54
220 1 2.425 10.85 53.5364 -3.54002
221 1 4.85002 10.85 54.3448 -3.54001
222 1 7.27503 10.85 55.1531 -3.54
223 1 3.23334 9.04251 55.1531 -3.54
224 1 5.65836 9.04251 55.9614 -3.54
225 1 8.08337 9.04251 56.7698 -3.54
226 1 1.61666 10.85 55.9614 -3.54
227 1 4.04168 10.85 56.7698 -3.54
228 1 6.46669 10.85 57.5781 -3.54
229 1 8.89171 10.85 58.3865 -3.54
230 1 2.425 9.04251 57.5781 -3.54
231 1 4.85002 9.04251 58.3865 -3.54
232 1 7.27503 9.04251 59.1948 -3.54
233 1 3.23334 10.85 59.1948 -3.54
234 1 5.65836 10.85 51.9197 -3.53999
235 1 8.08337 10.85 52.7281 -3.54002
236 1 1.61666 9.04251 60.0031 -3.54
237 1 4.04168 9.04251 60.8115 -3.54
238 1 6.46669 9.04251 61.6198 -3.54
239 1 8.89171 9.04251 62.4281 -3.54
240 1 2.425 10.85 61.6198 -3.54
241 1 4.85002 10.85 62.4281 -3.54
242 1 7.27503 10.85 63.2365 -3.54
243 1 3.23334 9.04251 63.2365 -3.54
244 1 5.65836 9.04251 64.0448 -3.54
245 1 8.08337 9.04251 64.8532 -3.54
246 1 1.61666 10.85 64.0448 -3.54
247 1 4.04168 10.85 64.8532 -3.54
248 1 6.46669 10.85 65.6615 -3.54
249 1 8.89171 10.85 66.4698 -3.54048
250 1 2.425 9.04251 65.6615 -3.54
251 1 4.85002 9.04251 66.4698 -3.54048
252 1 7.27503 9.04251 67.2782 -3.53371
253 1 3.23334 10.85 67.2782 -3.53371
254 1 5.65836 10.85 60.0031 -3.54
255 1 8.08337 10.85 60.8115 -3.54
256 1 1.61666 9.04251 68.0865 -3.50249
257 1 4.04168 9.04251 68.8949 -3.39542
258 1 6.46669 9.04251 69.7032 -3.14502
259 1 8.89171 9.04251 70.5115 -2.6938
260 1 2.425 10.85 69.7032 -3.14502
261 1 4.85002 10.85 70.5115 -2.6938
262 1 5.65836 10.85 68.0865 -3.50249
263 1 8.08337 10.85 68.8949 -3.39542
264 1 1.58659 13.0108 35.686 -3.47519
265 1 3.962 12.7116 36.7343 -3.34499
266 1 6.46325 12.5911 37.4192 -3.46806
267 1 8.95985 12.5965 38.1605 -3.52944
268 1 2.42929 14.5192 37.4211 -3.45274
269 1 4.89698 14.4803 38.191 -3.51654
270 1 7.26539 14.443 39.0493 -3.50713
271 1 3.21059 12.6643 39.0512 -3.50484
272 1 5.64003 12.6568 39.8249 -3.53902
273 1 8.09397 12.6452 40.611 -3.54131
274 1 1.60081 14.498 39.7884 -3.54329
275 1 4.03405 14.4925 40.595 -3.54727
276 1 6.45728 14.463 41.4334 -3.53632
277 1 8.88919 14.4548 42.2318 -3.53998
278 1 2.4104 12.6685 41.423 -3.53665
279 1 4.83512 12.6673 42.2326 -3.54054
280 1 7.27048 12.6528 43.0344 -3.54174
281 1 3.23018 14.4768 43.0267 -3.54079
282 1 5.64814 14.1264 35.6917 -3.44718
283 1 8.02017 14.3899 36.7367 -3.34399
284 1 1.61552 12.6626 43.8384 -3.53853
285 1 4.03678 12.6616 44.6511 -3.53953
286 1 6.46359 12.6553 45.4573 -3.54018
287 1 8.89075 12.6546 46.2631 -3.53956
288 1 2.42405 14.4699 45.4533 -3.54006
289 1 4.84862 14.4667 46.2667 -3.53933
290 1 7.27407 14.4641 47.0725 -3.53997
291 1 3.23168 12.6588 47.0722 -3.53989
292 1 5.65699 12.6567 47.8802 -3.54003
293 1 8.08294 12.6567 48.6871 -3.53986
294 1 1.61629 14.4664 47.8783 -3.53995
295 1 4.04113 14.4656 48.6885 -3.5397
296 1 6.46638 14.4649 49.4957 -3.53996
297 1 8.89194 14.4648 50.3026 -3.54014
298 1 2.42448 12.6578 49.4955 -3.53986
299 1 4.84969 12.6572 50.3038 -3.5399
300 1 7.27503 12.6575 51.1114 -3.53997
301 1 3.23334 14.465 51.1114 -3.5399
302 1 5.65513 14.4669 43.8476 -3.53807
303 1 8.08164 14.4613 44.651 -3.53987
304 1 1.61666 12.6575 51.9197 -3.53997
305 1 4.04168 12.6575 52.7281 -3.54
306 1 6.46669 12.6575 53.5364 -3.54003
307 1 8.89171 12.6575 54.3448 -3.54
308 1 2.425 14.465 53.5364 -3.54003
309 1 4.85002 14.465 54.3448 -3.54001
310 1 7.27503 14.465 55.1531 -3.54
311 1 3.23334 12.6575 55.1531 -3.54
312 1 5.65836 12.6575 55.9614 -3.54
313 1 8.08337 12.6575 56.7698 -3.54
314 1 1.61666 14.465 55.9614 -3.54
315 1 4.04168 14.465 56.7698 -3.54
316 1 6.46669 14.465 57.5781 -3.54
317 1 8.89171 14.465 58.3865 -3.54
318 1 2.425 12.6575 57.5781 -3.54
319 1 4.85002 12.6575 58.3865 -3.54
320 1 7.27503 12.6575 59.1948 -3.54
321 1 3.23334 14.465 59.1948 -3.54
322 1 5.65836 14.465 51.9197 -3.54001
323 1 8.08337 14.465 52.7281 -3.54006
324 1 1.61666 12.6575 60.0031 -3.54
325 1 4.04168 12.6575 60.8115 -3.54
326 1 6.46669 12.6575 61.6198 -3.54
327 1 8.89171 12.6575 62.4281 -3.54
328 1 2.425 14.465 61.6198 -3.54
329 1 4.85002 14.465 62.4281 -3.54
330 1 7.27503 14.465 63.2365 -3.54
331 1 3.23334 12.6575 63.2365 -3.54
332 1 5.65836 12.6575 64.0448 -3.54
333 1 8.08337 12.6575 64.8532 -3.54
334 1 1.61666 14.465 64.0448 -3.54
335 1 4.04168 14.465 64.8532 -3.54
336 1 6.46669 14.465 65.6615 -3.54
337 1 8.89171 14.465 66.4698 -3.54048
338 1 2.425 12.6575 65.6615 -3.54
339 1 4.85002 12.6575 66.4698 -3.54048
340 1 7.27503 12.6575 67.2782 -3.53371
341 1 3.23334 14.465 67.2782 -3.53371
342 1 5.65836 14.465 60.0031 -3.54
343 1 8.08337 14.465 60.8115 -3.54
344 1 1.61666 12.6575 68.0865 -3.50249
345 1 4.04168 12.6575 68.8949 -3.39542
346 1 6.46669 12.6575 69.7032 -3.14502
347 1 8.89171 12.6575 70.5115 -2.6938
348 1 2.425 14.465 69.7032 -3.14502
349 1 4.85002 14.465 70.5115 -2.6938
350 1 5.65836 14.465 68.0865 -3.50249
351 1 8.08337 14.465 68.8949 -3.39542
352 1 1.53822 16.0951 35.7047 -3.51469
353 1 4.08611 16.1359 36.489 -3.4838
354 1 6.46236 16.2442 37.1609 -3.5392
355 1 8.83861 16.2585 38.2348 -3.51615
356 1 2.44634 18.0395 37.0932 -3.56055
357 1 4.85493 18.0328 38.1301 -3.52979
358 1 7.24586 18.0781 39.0389 -3.50743
359 1 3.2304 16.3105 38.9433 -3.52412
360 1 5.67424 16.2722 39.7634 -3.53454
361 1 8.0779 16.2667 40.642 -3.52978
362 1 1.63285 18.0752 39.748 -3.52323
363 1 4.059 18.0677 40.5967 -3.53267
364 1 6.46522 18.0882 41.4259 -3.53405
365 1 8.88829 18.0896 42.2253 -3.54119
366 1 2.42959 16.2865 41.4006 -3.53628
367 1 4.85799 16.2754 42.2164 -3.54034
368 1 7.27412 16.2739 43.0448 -3.53748
369 1 3.23872 18.0785 43.0274 -3.53949
370 1 5.62417 18.3236 35.7138 -3.50074
371 1 8.00166 18.1056 36.7308 -3.34032
372 1 1.61589 16.2766 43.8309 -3.54084
373 1 4.0431 16.2754 44.6458 -3.54039
374 1 6.46621 16.2748 45.4601 -3.53919
375 1 8.8913 16.2722 46.2623 -3.54032
376 1 2.42611 18.0791 45.4535 -3.53993
377 1 4.85024 18.0826 46.2635 -3.53983
378 1 7.27521 18.0823 47.0716 -3.53996
379 1 3.23355 16.274 47.0713 -3.53985
380 1 5.65815 16.2739 47.8811 -3.53963
381 1 8.08345 16.2725 48.6866 -3.54014
382 1 1.61677 18.0795 47.8786 -3.53994
383 1 4.04167 18.0813 48.6873 -3.53991
384 1 6.46677 18.081 49.4954 -3.53993
385 1 8.89195 18.0798 50.3029 -3.54007
386 1 2.42481 16.2729 49.4954 -3.53985
387 1 4.8499 16.2731 50.304 -3.5398
388 1 7.27503 16.2725 51.1114 -3.54009
389 1 3.23334 18.08 51.1114 -3.53999
390 1 5.6589 18.085 43.8409 -3.53925
391 1 8.08327 18.0848 44.6482 -3.54017
392 1 1.61666 16.2725 51.9197 -3.53995
393 1 4.04168 16.2725 52.7281 -3.53999
394 1 6.46669 16.2725 53.5364 -3.54004
395 1 8.89171 16.2725 54.3448 -3.54
396 1 2.425 18.08 53.5364 -3.54002
397 1 4.85002 18.08 54.3448 -3.54001
398 1 7.27503 18.08 55.1531 -3.54
399 1 3.23334 16.2725 55.1531 -3.54
400 1 5.65836 16.2725 55.9614 -3.54
401 1 8.08337 16.2725 56.7698 -3.54
402 1 1.61666 18.08 55.9614 -3.54
403 1 4.04168 18.08 56.7698 -3.54
404 1 6.46669 18.08 57.5781 -3.54
405 1 8.89171 18.08 58.3865 -3.54
406 1 2.425 16.2725 57.5781 -3.54
407 1 4.85002 16.2725 58.3865 -3.54
408 1 7.27503 16.2725 59.1948 -3.54
409 1 3.23334 18.08 59.1948 -3.54
410 1 5.65836 18.08 51.9197 -3.53999
411 1 8.08337 18.08 52.7281 -3.54004
412 1 1.61666 16.2725 60.0031 -3.54
413 1 4.04168 16.2725 60.8115 -3.54
414 1 6.46669 16.2725 61.6198 -3.54
415 1 8.89171 16.2725 62.4281 -3.54
416 1 2.425 18.08 61.6198 -3.54
417 1 4.85002 18.08 62.4281 -3.54
418 1 7.27503 18.08 63.2365 -3.54
419 1 3.23334 16.2725 63.2365 -3.54
420 1 5.65836 16.2725 64.0448 -3.54
421 1 8.08337 16.2725 64.8532 -3.54
422 1 1.61666 18.08 64.0448 -3.54
423 1 4.04168 18.08 64.8532 -3.54
424 1 6.46669 18.08 65.6615 -3.54
425 1 8.89171 18.08 66.4698 -3.54048
426 1 2.425 16.2725 65.6615 -3.54
427 1 4.85002 16.2725 66.4698 -3.54048
428 1 7.27503 16.2725 67.2782 -3.53371
429 1 3.23334 18.08 67.2782 -3.53371
430 1 5.65836 18.08 60.0031 -3.54
431 1 8.08337 18.08 60.8115 -3.54
432 1 1.61666 16.2725 68.0865 -3.50249
433 1 4.04168 16.2725 68.8949 -3.39542
434 1 6.46669 16.2725 69.7032 -3.14502
435 1 8.89171 16.2725 70.5115 -2.6938
436 1 2.425 18.08 69.7032 -3.14502
437 1 4.85002 18.08 70.5115 -2.6938
438 1 5.65836 18.08 68.0865 -3.50249
439 1 8.08337 18.08 68.8949 -3.39542
440 1 1.61781 20.3019 35.6919 -3.42731
441 1 3.94476 19.9371 36.7768 -3.31508
442 1 6.45925 19.9087 37.4094 -3.45622
443 1 8.96056 19.9011 38.1625 -3.52524
444 1 2.43019 21.8036 37.4169 -3.4679
445 1 4.86558 21.7677 38.1706 -3.5142
446 1 7.27382 21.7087 38.946 -3.51694
447 1 3.22449 19.879 39.0536 -3.48812
448 1 5.64131 19.8972 39.7824 -3.54324
449 1 8.08346 19.9061 40.5809 -3.54867
450 1 1.60308 21.6993 39.8091 -3.54454
451 1 4.03723 21.7059 40.603 -3.53997
452 1 6.46498 21.6914 41.3983 -3.53813
453 1 8.89661 21.6913 42.2097 -3.53832
454 1 2.41917 19.8795 41.4237 -3.53422
455 1 4.84597 19.8905 42.2141 -3.54148
456 1 7.27606 19.8949 43.0239 -3.54062
457 1 3.2311 21.6964 43.0275 -3.54061
458 1 5.52689 21.4523 35.6873 -3.49296
459 1 8.08721 21.5413 36.4967 -3.48825
460 1 1.61728 19.8839 43.8417 -3.53755
461 1 4.04178 19.8892 44.6436 -3.54021
462 1 6.46711 19.8913 45.4527 -3.54015
463 1 8.89201 19.8895 46.2636 -3.53938
464 1 2.42508 21.6957 45.4531 -3.53996
465 1 4.84986 21.6968 46.2591 -3.54006
466 1 7.27491 21.6967 47.0692 -3.53987
467 1 3.23347 19.8884 47.0694 -3.54023
468 1 5.65841 19.8896 47.8782 -3.54006
469 1 8.08344 19.8886 48.6872 -3.53981
470 1 1.61693 21.6955 47.8779 -3.54005
471 1 4.04166 21.6964 48.6853 -3.54016
472 1 6.46653 21.6962 49.4945 -3.53998
473 1 8.8916 21.6952 50.3033 -3.53996
474 1 2.42503 19.888 49.4946 -3.54012
475 1 4.84997 19.8884 50.3031 -3.54001
476 1 7.27503 19.8875 51.1114 -3.53996
477 1 3.23334 21.695 51.1114 -3.54007
478 1 5.65692 21.6957 43.8308 -3.54015
479 1 8.08378 21.6958 44.6424 -3.5398
480 1 1.61666 19.8875 51.9197 -3.54006
481 1 4.04168 19.8875 52.7281 -3.54
482 1 6.46669 19.8875 53.5364 -3.54
483 1 8.89171 19.8875 54.3448 -3.54
484 1 2.425 21.695 53.5364 -3.53998
485 1 4.85002 21.695 54.3448 -3.53999
486 1 7.27503 21.695 55.1531 -3.54
487 1 3.23334 19.8875 55.1531 -3.54
488 1 5.65836 19.8875 55.9614 -3.54
489 1 8.08337 19.8875 56.7698 -3.54
490 1 1.61666 21.695 55.9614 -3.54
491 1 4.04168 21.695 56.7698 -3.54
492 1 6.46669 21.695 57.5781 -3.54
493 1 8.89171 21.695 58.3865 -3.54
494 1 2.425 19.8875 57.5781 -3.54
495 1 4.85002 19.8875 58.3865 -3.54
496 1 7.27503 19.8875 59.1948 -3.54
497 1 3.23334 21.695 59.1948 -3.54
498 1 5.65836 21.695 51.9197 -3.53998
499 1 8.08337 21.695 52.7281 -3.53998
500 1 1.61666 19.8875 60.0031 -3.54
501 1 4.04168 19.8875 60.8115 -3.54
502 1 6.46669 19.8875 61.6198 -3.54
503 1 8.89171 19.8875 62.4281 -3.54
504 1 2.425 21.695 61.6198 -3.54
505 1 4.85002 21.695 62.4281 -3.54
506 1 7.27503 21.695 63.2365 -3.54
507 1 3.23334 19.8875 63.2365 -3.54
508 1 5.65836 19.8875 64.0448 -3.54
509 1 8.08337 19.8875 64.8532 -3.54
510 1 1.61666 21.695 64.0448 -3.54
511 1 4.04168 21.695 64.8532 -3.54
512 1 6.46669 21.695 65.6615 -3.54
513 1 8.89171 21.695 66.4698 -3.54048
514 1 2.425 19.8875 65.6615 -3.54
515 1 4.85002 19.8875 66.4698 -3.54048
516 1 7.27503 19.8875 67.2782 -3.53371
517 1 3.23334 21.695 67.2782 -3.53371
518 1 5.65836 21.695 60.0031 -3.54
519 1 8.08337 21.695 60.8115 -3.54
520 1 1.61666 19.8875 68.0865 -3.50249
521 1 4.04168 19.8875 68.8949 -3.39542
522 1 6.46669 19.8875 69.7032 -3.14502
523 1 8.89171 19.8875 70.5115 -2.6938
524 1 2.425 21.695 69.7032 -3.14502
525 1 4.85002 21.695 70.5115 -2.6938
526 1 5.65836 21.695 68.0865 -3.50249
527 1 8.08337 21.695 68.8949 -3.39542
528 1 1.49495 23.5057 35.7833 -3.47001
529 1 3.98358 23.5287 36.5033 -3.4843
530 1 6.46768 23.4414 37.0538 -3.57031
531 1 8.86757 23.4362 38.1301 -3.5184
532 1 2.42238 25.2429 37.3959 -3.47534
533 1 4.91054 25.2444 38.1527 -3.52973
534 1 7.26344 25.2838 39.0469 -3.48863
535 1 3.23412 23.5239 39.021 -3.51167
536 1 5.68375 23.4926 39.7703 -3.51435
537 1 8.0934 23.4756 40.6018 -3.52537
538 1 1.6107 0.0214277 39.8071 -3.54294
539 1 4.05884 0.00560396 40.5976 -3.54213
540 1 6.46788 0.00603219 41.4189 -3.53337
541 1 8.88743 25.303 42.21 -3.54221
542 1 2.41971 23.5106 41.4233 -3.53969
543 1 4.85372 23.5024 42.2084 -3.54259
544 1 7.27479 23.4962 43.023 -3.53991
545 1 3.23832 0.00853262 43.0261 -3.54137
546 1 5.64055 0.325205 35.6944 -3.46433
547 1 7.99564 0.0358671 36.7668 -3.31671
548 1 1.61466 23.5036 43.8396 -3.54063
549 1 4.04247 23.504 44.6393 -3.54079
550 1 6.46631 23.5026 45.4494 -3.53985
551 1 8.89126 23.502 46.2595 -3.5401
552 1 2.42576 0.00758817 45.4507 -3.54074
553 1 4.85065 0.00704685 46.257 -3.54014
554 1 7.27513 0.00506952 47.0662 -3.54033
555 1 3.23375 23.5043 47.067 -3.54029
556 1 5.6582 23.504 47.876 -3.54001
557 1 8.08306 23.5031 48.6858 -3.54003
558 1 1.61684 0.00617797 47.8768 -3.54028
559 1 4.042 0.00614103 48.6843 -3.54011
560 1 6.46681 0.00538269 49.4935 -3.54011
561 1 8.89148 0.0048428 50.3032 -3.53991
562 1 2.42537 23.5033 49.4937 -3.54018
563 1 4.85002 23.5032 50.3024 -3.54009
564 1 7.27503 23.5025 51.1114 -3.53996
565 1 3.23334 0.00501033 51.1114 -3.54002
566 1 5.66016 0.00705951 43.8324 -3.53932
567 1 8.08304 0.00283382 44.6384 -3.54086
568 1 1.61666 23.5025 51.9197 -3.54004
569 1 4.04168 23.5025 52.7281 -3.53998
570 1 6.46669 23.5025 53.5364 -3.53997
571 1 8.89171 23.5025 54.3448 -3.54
572 1 2.425 0.00501033 53.5364 -3.53996
573 1 4.85002 0.00501033 54.3448 -3.53999
574 1 7.27503 0.00501033 55.1531 -3.54
575 1 3.23334 23.5025 55.1531 -3.54
576 1 5.65836 23.5025 55.9614 -3.54
577 1 8.08337 23.5025 56.7698 -3.54
578 1 1.61666 0.00501033 55.9614 -3.54
579 1 4.04168 0.00501033 56.7698 -3.54
580 1 6.46669 0.00501033 57.5781 -3.54
581 1 8.89171 0.00501033 58.3865 -3.54
582 1 2.425 23.5025 57.5781 -3.54
583 1 4.85002 23.5025 58.3865 -3.54
584 1 7.27503 23.5025 59.1948 -3.54
585 1 3.23334 0.00501033 59.1948 -3.54
586 1 5.65836 0.00501033 51.9197 -3.54
587 1 8.08337 0.00501033 52.7281 -3.53994
588 1 1.61666 23.5025 60.0031 -3.54
589 1 4.04168 23.5025 60.8115 -3.54
590 1 6.46669 23.5025 61.6198 -3.54
591 1 8.89171 23.5025 62.4281 -3.54
592 1 2.425 0.00501033 61.6198 -3.54
593 1 4.85002 0.00501033 62.4281 -3.54
594 1 7.27503 0.00501033 63.2365 -3.54
595 1 3.23334 23.5025 63.2365 -3.54
596 1 5.65836 23.5025 64.0448 -3.54
597 1 8.08337 23.5025 64.8532 -3.54
598 1 1.61666 0.00501033 64.0448 -3.54
599 1 4.04168 0.00501033 64.8532 -3.54
600 1 6.46669 0.00501033 65.6615 -3.54
601 1 8.89171 0.00501033 66.4698 -3.54048
602 1 2.425 23.5025 65.6615 -3.54
603 1 4.85002 23.5025 66.4698 -3.54048
604 1 7.27503 23.5025 67.2782 -3.53371
605 1 3.23334 0.00501033 67.2782 -3.53371
606 1 5.65836 0.00501033 60.0031 -3.54
607 1 8.08337 0.00501033 60.8115 -3.54
608 1 1.61666 23.5025 68.0865 -3.50249
609 1 4.04168 23.5025 68.8949 -3.39542
610 1 6.46669 23.5025 69.7032 -3.14502
611 1 8.89171 23.5025 70.5115 -2.6938
612 1 2.425 0.00501033 69.7032 -3.14502
613 1 4.85002 0.00501033 70.5115 -2.6938
614 1 5.65836 0.00501033 68.0865 -3.50249
615 1 8.08337 0.00501033 68.8949 -3.39542
616 1 9.66998 1.45917 35.686 -3.47519
617 1 12.0454 1.75841 36.7343 -3.34499
618 1 14.5466 1.87887 37.4192 -3.46806
619 1 0.876465 1.87352 38.1605 -3.52944
620 1 10.4924 3.60399 37.1583 -3.53745
621 1 12.8813 3.60732 38.2291 -3.51659
622 1 15.3626 3.60117 39.0261 -3.51255
623 1 11.294 1.80576 39.0512 -3.50484
624 1 13.7234 1.81327 39.8249 -3.53902
625 1 0.010585 1.82484 40.611 -3.54131
626 1 9.7071 3.62647 39.7621 -3.53182
627 1 12.1109 3.62216 40.6421 -3.52905
628 1 14.5387 3.61969 41.4299 -3.53865
629 1 0.811732 3.62417 42.2139 -3.5425
630 1 10.4938 1.80151 41.423 -3.53665
631 1 12.9185 1.80268 42.2326 -3.54054
632 1 15.3539 1.81726 43.0344 -3.54174
633 1 11.3104 3.6214 43.0417 -3.53769
634 1 13.6516 3.56402 35.76 -3.47602
635 1 16.1132 3.57594 36.5108 -3.47755
636 1 9.6989 1.8074 43.8384 -3.53853
637 1 12.1202 1.80843 44.6511 -3.53953
638 1 14.547 1.81471 45.4573 -3.54018
639 1 0.807366 1.81541 46.2631 -3.53956
640 1 10.507 3.62101 45.4572 -3.53936
641 1 12.9301 3.62146 46.2642 -3.54013
642 1 15.357 3.62136 47.0707 -3.54
643 1 11.3151 1.81118 47.0722 -3.53989
644 1 13.7404 1.8133 47.8802 -3.54003
645 1 16.1663 1.81333 48.6871 -3.53986
646 1 9.69985 3.62019 47.879 -3.53983
647 1 12.1241 3.62078 48.6875 -3.54002
648 1 14.5496 3.62062 49.4954 -3.53995
649 1 0.808318 3.62004 50.3032 -3.53993
650 1 10.5079 1.81225 49.4955 -3.53986
651 1 12.9331 1.81278 50.3038 -3.5399
652 1 15.3584 1.81251 51.1114 -3.53997
653 1 11.3167 3.62001 51.1114 -3.54001
654 1 13.733 3.62158 43.8426 -3.54064
655 1 16.1642 3.62248 44.6442 -3.54074
656 1 9.70005 1.81251 51.9197 -3.53997
657 1 12.1251 1.81251 52.7281 -3.54
658 1 14.5501 1.81251 53.5364 -3.54003
659 1 0.808324 1.81251 54.3448 -3.54
660 1 10.5084 3.62001 53.5364 -3.54002
661 1 12.9334 3.62001 54.3448 -3.54001
662 1 15.3584 3.62001 55.1531 -3.54
663 1 11.3167 1.81251 55.1531 -3.54
664 1 13.7417 1.81251 55.9614 -3.54
665 1 16.1668 1.81251 56.7698 -3.54
666 1 9.70005 3.62001 55.9614 -3.54
667 1 12.1251 3.62001 56.7698 -3.54
668 1 14.5501 3.62001 57.5781 -3.54
669 1 0.808324 3.62001 58.3865 -3.54
670 1 10.5084 1.81251 57.5781 -3.54
671 1 12.9334 1.81251 58.3865 -3.54
672 1 15.3584 1.81251 59.1948 -3.54
673 1 11.3167 3.62001 59.1948 -3.54
674 1 13.7417 3.62001 51.9197 -3.53999
675 1 16.1668 3.62001 52.7281 -3.54002
676 1 9.70005 1.81251 60.0031 -3.54
677 1 12.1251 1.81251 60.8115 -3.54
678 1 14.5501 1.81251 61.6198 -3.54
679 1 0.808324 1.81251 62.4281 -3.54
680 1 10.5084 3.62001 61.6198 -3.54
681 1 12.9334 3.62001 62.4281 -3.54
682 1 15.3584 3.62001 63.2365 -3.54
683 1 11.3167 1.81251 63.2365 -3.54
684 1 13.7417 1.81251 64.0448 -3.54
685 1 16.1668 1.81251 64.8532 -3.54
686 1 9.70005 3.62001 64.0448 -3.54
687 1 12.1251 3.62001 64.8532 -3.54
688 1 14.5501 3.62001 65.6615 -3.54
689 1 0.808324 3.62001 66.4698 -3.54048
690 1 10.5084 1.81251 65.6615 -3.54
691 1 12.9334 1.81251 66.4698 -3.54048
692 1 15.3584 1.81251 67.2782 -3.53371
693 1 11.3167 3.62001 67.2782 -3.53371
694 1 13.7417 3.62001 60.0031 -3.54
695 1 16.1668 3.62001 60.8115 -3.54
696 1 9.70005 1.81251 68.0865 -3.50249
697 1 12.1251 1.81251 68.8949 -3.39542
698 1 14.5501 1.81251 69.7032 -3.14502
699 1 0.808324 1.81251 70.5115 -2.6938
700 1 10.5084 3.62001 69.7032 -3.14502
701 1 12.9334 3.62001 70.5115 -2.6938
702 1 13.7417 3.62001 68.0865 -3.50249
703 1 16.1668 3.62001 68.8949 -3.39542
704 1 12.0608 5.44352 36.7212 -3.34277
705 1 14.5589 5.30694 37.4013 -3.47115
706 1 0.827306 5.35072 38.1691 -3.51594
707 1 10.5074 7.25133 37.4083 -3.45697
708 1 13 7.24564 38.1557 -3.52649
709 1 15.3467 7.23362 39.0511 -3.48867
710 1 11.2858 5.425 39.0309 -3.51012
711 1 13.7271 5.42098 39.8031 -3.54605
712 1 16.1649 5.41371 40.6043 -3.53978
713 1 9.68277 7.24818 39.7803 -3.544
714 1 12.1253 7.25164 40.5774 -3.54905
715 1 14.5438 7.23838 41.4226 -3.53396
716 1 0.804536 7.22796 42.2135 -3.54125
717 1 10.5032 5.44049 41.4228 -3.53376
718 1 12.9261 5.43961 42.2252 -3.54057
719 1 15.3543 5.42701 43.0307 -3.53988
720 1 11.3182 7.24549 43.0223 -3.54064
721 1 13.7555 6.83086 35.6915 -3.42143
722 1 16.0769 7.18199 36.7776 -3.31606
723 1 9.70002 5.43378 43.838 -3.53932
724 1 12.1224 5.43405 44.6476 -3.54025
725 1 14.5478 5.42865 45.455 -3.53991
726 1 0.807713 5.42697 46.2606 -3.54006
727 1 10.5091 7.23994 45.452 -3.54021
728 1 12.9339 7.23845 46.2633 -3.53935
729 1 15.3587 7.23539 47.0694 -3.5402
730 1 11.3161 5.43043 47.0711 -3.54001
731 1 13.7409 5.4288 47.8792 -3.53992
732 1 16.1665 5.42767 48.6865 -3.54001
733 1 9.70027 7.23676 47.878 -3.54009
734 1 12.1252 7.23683 48.6871 -3.53979
735 1 14.5502 7.23574 49.4946 -3.5401
736 1 0.808333 7.23475 50.3031 -3.54002
737 1 10.5082 5.42836 49.4951 -3.53998
738 1 12.9332 5.42809 50.3034 -3.53994
739 1 15.3584 5.42751 51.1114 -3.54001
740 1 11.3167 7.23501 51.1114 -3.53995
741 1 13.7424 7.2399 43.8411 -3.53745
742 1 0.000214296 7.23335 44.6433 -3.54014
743 1 9.70005 5.42751 51.9197 -3.54001
744 1 12.1251 5.42751 52.7281 -3.54
745 1 14.5501 5.42751 53.5364 -3.54002
746 1 0.808324 5.42751 54.3448 -3.54
747 1 10.5084 7.23501 53.5364 -3.54
748 1 12.9334 7.23501 54.3448 -3.54
749 1 15.3584 7.23501 55.1531 -3.54
750 1 11.3167 5.42751 55.1531 -3.54
751 1 13.7417 5.42751 55.9614 -3.54
752 1 16.1668 5.42751 56.7698 -3.54
753 1 9.70005 7.23501 55.9614 -3.54
754 1 12.1251 7.23501 56.7698 -3.54
755 1 14.5501 7.23501 57.5781 -3.54
756 1 0.808324 7.23501 58.3865 -3.54
757 1 10.5084 5.42751 57.5781 -3.54
758 1 12.9334 5.42751 58.3865 -3.54
759 1 15.3584 5.42751 59.1948 -3.54
760 1 11.3167 7.23501 59.1948 -3.54
761 1 13.7417 7.23501 51.9197 -3.54005
762 1 16.1668 7.23501 52.7281 -3.54
763 1 9.70005 5.42751 60.0031 -3.54
764 1 12.1251 5.42751 60.8115 -3.54
765 1 14.5501 5.42751 61.6198 -3.54
766 1 0.808324 5.42751 62.4281 -3.54
767 1 10.5084 7.23501 61.6198 -3.54
768 1 12.9334 7.23501 62.4281 -3.54
769 1 15.3584 7.23501 63.2365 -3.54
770 1 11.3167 5.42751 63.2365 -3.54
771 1 13.7417 5.42751 64.0448 -3.54
772 1 16.1668 5.42751 64.8532 -3.54
773 1 9.70005 7.23501 64.0448 -3.54
774 1 12.1251 7.23501 64.8532 -3.54
775 1 14.5501 7.23501 65.6615 -3.54
776 1 0.808324 7.23501 66.4698 -3.54048
777 1 10.5084 5.42751 65.6615 -3.54
778 1 12.9334 5.42751 66.4698 -3.54048
779 1 15.3584 5.42751 67.2782 -3.53371
780 1 11.3167 7.23501 67.2782 -3.53371
781 1 13.7417 7.23501 60.0031 -3.54
782 1 16.1668 7.23501 60.8115 -3.54
783 1 9.70005 5.42751 68.0865 -3.50249
784 1 12.1251 5.42751 68.8949 -3.39542
785 1 14.5501 5.42751 69.7032 -3.14502
786 1 0.808324 5.42751 70.5115 -2.6938
787 1 10.5084 7.23501 69.7032 -3.14502
788 1 12.9334 7.23501 70.5115 -2.6938
789 1 13.7417 7.23501 68.0865 -3.50249
790 1 16.1668 7.23501 68.8949 -3.39542
791 1 9.5852 8.80937 35.6904 -3.49289
792 1 12.113 8.899 36.4898 -3.49171
793 1 14.5607 9.06993 37.1006 -3.56221