ITEM: TIMESTEP
0
ITEM: NUMBER OF ATOMS
1924
ITEM: BOX BOUNDS pp pp ss
0.0000000000000000e+00 8.0833857386617396e+00
0.0000000000000000e+00 3.9765000000000001e+01
-7.0299982394810530e-03 7.0071018044248589e+01
ITEM: ATOMS id type x y z c_eng
1 1 3.2138 1.70639 36.1605 -3.41006
2 1 5.52696 1.73451 37.0431 -3.39641
3 1 8.06773 1.85337 37.7344 -3.53384
4 1 1.70915 3.59031 36.9857 -3.38039
5 1 4.07695 3.69435 37.5996 -3.54205
6 1 6.47332 3.59008 38.5343 -3.51019
7 1 2.45119 1.7998 38.5545 -3.53027
8 1 4.82601 1.81102 39.3805 -3.52657
9 1 7.27888 1.8216 40.1704 -3.53292
10 1 0.809681 3.63017 39.3415 -3.52282
11 1 3.23609 3.62686 40.1213 -3.54328
12 1 5.66182 3.62032 40.9678 -3.53607
13 1 0.0016589 3.63011 41.7674 -3.5371
14 1 1.61865 1.81918 40.9615 -3.54242
15 1 4.03639 1.8201 41.783 -3.53884
16 1 6.46816 1.81784 42.5874 -3.53903
17 1 2.42623 3.62291 42.5731 -3.54127
18 1 4.77146 4.38969 35.1503 -3.32302
19 1 6.91749 3.37525 35.9339 -3.4962
20 1 0.80774 1.81801 43.3864 -3.54134
21 1 3.23199 1.81834 44.2029 -3.53938
22 1 5.65922 1.81652 45.0086 -3.53953
23 1 8.08301 1.8162 45.8123 -3.5406
24 1 1.61676 3.62343 45.0038 -3.54042
25 1 4.04215 3.62424 45.8157 -3.53952
26 1 6.46725 3.62422 46.6207 -3.54016
27 1 2.42425 1.81598 46.6247 -3.53967
28 1 4.85021 1.8149 47.4314 -3.53991
29 1 7.27472 1.81435 48.2379 -3.54035
30 1 0.808232 3.62235 47.4301 -3.54011
31 1 3.23349 3.62225 48.2396 -3.5398
32 1 5.65862 3.62157 49.0466 -3.54013
33 1 8.08324 3.62067 49.8554 -3.54001
34 1 1.61623 1.81384 49.0478 -3.53982
35 1 4.04185 1.81322 49.8556 -3.54002
36 1 6.46671 1.8125 50.6638 -3.54016
37 1 2.42501 3.62 50.6638 -3.53992
38 1 4.85172 3.62444 43.3926 -3.5385
39 1 7.27614 3.62697 44.1944 -3.53978
40 1 0.808337 1.8125 51.4722 -3.53993
41 1 3.23335 1.8125 52.2805 -3.54
42 1 5.65837 1.8125 53.0888 -3.53999
43 1 8.08338 1.8125 53.8972 -3.54
44 1 1.61668 3.62 53.0888 -3.54
45 1 4.04169 3.62 53.8972 -3.54
46 1 6.46671 3.62 54.7055 -3.54
47 1 2.42501 1.8125 54.7055 -3.54
48 1 4.85003 1.8125 55.5138 -3.54
49 1 7.27505 1.8125 56.3222 -3.54
50 1 0.808337 3.62 55.5138 -3.54
51 1 3.23335 3.62 56.3222 -3.54
52 1 5.65837 3.62 57.1305 -3.54
53 1 8.08338 3.62 57.9389 -3.54
54 1 1.61668 1.8125 57.1305 -3.54
55 1 4.04169 1.8125 57.9389 -3.54
56 1 6.46671 1.8125 58.7472 -3.54
57 1 2.42501 3.62 58.7472 -3.54
58 1 4.85003 3.62 51.4722 -3.54005
59 1 7.27505 3.62 52.2805 -3.54
60 1 0.808337 1.8125 59.5555 -3.54
61 1 3.23335 1.8125 60.3639 -3.54
62 1 5.65837 1.8125 61.1722 -3.54
63 1 8.08338 1.8125 61.9806 -3.54
64 1 1.61668 3.62 61.1722 -3.54
65 1 4.04169 3.62 61.9806 -3.54
66 1 6.46671 3.62 62.7889 -3.54
67 1 2.42501 1.8125 62.7889 -3.54
68 1 4.85003 1.8125 63.5972 -3.54
69 1 7.27505 1.8125 64.4056 -3.54
70 1 0.808337 3.62 63.5972 -3.54
71 1 3.23335 3.62 64.4056 -3.54
72 1 5.65837 3.62 65.2139 -3.54
73 1 8.08338 3.62 66.0222 -3.54048
74 1 1.61668 1.8125 65.2139 -3.54
75 1 4.04169 1.8125 66.0222 -3.54048
76 1 6.46671 1.8125 66.8306 -3.53371
77 1 2.42501 3.62 66.8306 -3.53371
78 1 4.85003 3.62 59.5555 -3.54
79 1 7.27505 3.62 60.3639 -3.54
80 1 0.808337 1.8125 67.6389 -3.50249
81 1 3.23335 1.8125 68.4473 -3.39542
82 1 5.65837 1.8125 69.2556 -3.14502
83 1 8.08338 1.8125 70.0639 -2.6938
84 1 1.61668 3.62 69.2556 -3.14502
85 1 4.04169 3.62 70.0639 -2.6938
86 1 4.85003 3.62 67.6389 -3.50249
87 1 7.27505 3.62 68.4473 -3.39542
88 1 2.78381 5.58443 35.8316 -3.50042
89 1 5.78349 5.42995 37.0528 -3.34468
90 1 0.0637769 5.35189 37.5014 -3.53032
91 1 1.50547 7.309 36.9975 -3.41523
92 1 4.00175 7.13578 37.7379 -3.52351
93 1 6.49244 7.24504 38.562 -3.51928
94 1 2.41072 5.42864 38.5136 -3.50392
95 1 4.84652 5.41 39.3741 -3.51571
96 1 7.28805 5.41632 40.0943 -3.54443
97 1 0.793689 7.22958 39.3465 -3.5293
98 1 3.22887 7.2236 40.1599 -3.53447
99 1 5.65769 7.23262 40.9584 -3.5411
100 1 8.08079 7.22908 41.7597 -3.54081
101 1 1.61952 5.42586 40.9569 -3.53523
102 1 4.038 5.42281 41.7784 -3.53448
103 1 6.47106 5.42992 42.5608 -3.54326
104 1 2.4229 7.2368 42.5772 -3.53951
105 1 7.19236 7.39127 36.1318 -3.43463
106 1 0.810383 5.43044 43.3855 -3.53844
107 1 3.23198 5.42953 44.1979 -3.53882
108 1 5.65991 5.43167 44.9989 -3.5412
109 1 0.00100223 5.43058 45.8123 -3.5395
110 1 1.61664 7.23729 45.0032 -3.53948
111 1 4.04179 7.23629 45.8108 -3.54015
112 1 6.46753 7.23536 46.6198 -3.53994
113 1 2.42477 5.42985 46.6222 -3.53969
114 1 4.85084 5.43005 47.4287 -3.54033
115 1 7.27559 5.42911 48.2385 -3.53981
116 1 0.808841 7.23621 47.43 -3.53974
117 1 3.23379 7.23564 48.2382 -3.54
118 1 5.65891 7.23524 49.0469 -3.53993
119 1 0.000165174 7.23536 49.8557 -3.53987
120 1 1.61671 5.42851 49.0474 -3.53987
121 1 4.04197 5.42827 49.8553 -3.54008
122 1 6.46671 5.4275 50.6638 -3.53991
123 1 2.42501 7.235 50.6638 -3.53993
124 1 4.84862 7.23606 43.3819 -3.54095
125 1 7.27528 7.23409 44.1901 -3.54027
126 1 0.808337 5.4275 51.4722 -3.53997
127 1 3.23335 5.4275 52.2805 -3.54005
128 1 5.65837 5.4275 53.0888 -3.54
129 1 8.08338 5.4275 53.8972 -3.54
130 1 1.61668 7.235 53.0888 -3.54002
131 1 4.04169 7.235 53.8972 -3.54001
132 1 6.46671 7.235 54.7055 -3.54
133 1 2.42501 5.4275 54.7055 -3.54
134 1 4.85003 5.4275 55.5138 -3.54
135 1 7.27505 5.4275 56.3222 -3.54
136 1 0.808337 7.235 55.5138 -3.54
137 1 3.23335 7.235 56.3222 -3.54
138 1 5.65837 7.235 57.1305 -3.54
139 1 8.08338 7.235 57.9389 -3.54
140 1 1.61668 5.4275 57.1305 -3.54
141 1 4.04169 5.4275 57.9389 -3.54
142 1 6.46671 5.4275 58.7472 -3.54
143 1 2.42501 7.235 58.7472 -3.54
144 1 4.85003 7.235 51.4722 -3.53997
145 1 7.27505 7.235 52.2805 -3.54001
146 1 0.808337 5.4275 59.5555 -3.54
147 1 3.23335 5.4275 60.3639 -3.54
148 1 5.65837 5.4275 61.1722 -3.54
149 1 8.08338 5.4275 61.9806 -3.54
150 1 1.61668 7.235 61.1722 -3.54
151 1 4.04169 7.235 61.9806 -3.54
152 1 6.46671 7.235 62.7889 -3.54
153 1 2.42501 5.4275 62.7889 -3.54
154 1 4.85003 5.4275 63.5972 -3.54
155 1 7.27505 5.4275 64.4056 -3.54
156 1 0.808337 7.235 63.5972 -3.54
157 1 3.23335 7.235 64.4056 -3.54
158 1 5.65837 7.235 65.2139 -3.54
159 1 8.08338 7.235 66.0222 -3.54048
160 1 1.61668 5.4275 65.2139 -3.54
161 1 4.04169 5.4275 66.0222 -3.54048
162 1 6.46671 5.4275 66.8306 -3.53371
163 1 2.42501 7.235 66.8306 -3.53371
164 1 4.85003 7.235 59.5555 -3.54
165 1 7.27505 7.235 60.3639 -3.54
166 1 0.808337 5.4275 67.6389 -3.50249
167 1 3.23335 5.4275 68.4473 -3.39542
168 1 5.65837 5.4275 69.2556 -3.14502
169 1 8.08338 5.4275 70.0639 -2.6938
170 1 1.61668 7.235 69.2556 -3.14502
171 1 4.04169 7.235 70.0639 -2.6938
172 1 4.85003 7.235 67.6389 -3.50249
173 1 7.27505 7.235 68.4473 -3.39542
174 1 0.87488 9.32317 35.4272 -3.36213
175 1 3.15067 8.88623 36.1318 -3.43463
176 1 5.54716 8.9685 36.9975 -3.41523
177 1 8.04345 9.14172 37.7379 -3.52351
178 1 1.7418 10.8475 37.0528 -3.34468
179 1 4.10547 10.9256 37.5014 -3.53032
180 1 6.45242 10.8489 38.5136 -3.50392
181 1 2.45075 9.03246 38.562 -3.51928
182 1 4.83538 9.04792 39.3465 -3.5293
183 1 7.27056 9.0539 40.1599 -3.53447
184 1 0.804822 10.8675 39.3741 -3.51571
185 1 3.24636 10.8612 40.0943 -3.54443
186 1 5.66121 10.8516 40.9569 -3.53523
187 1 8.07969 10.8547 41.7784 -3.53448
188 1 1.616 9.04488 40.9584 -3.5411
189 1 4.0391 9.04842 41.7597 -3.54081
190 1 6.4646 9.0407 42.5772 -3.53951
191 1 2.42937 10.8476 42.5608 -3.54326
192 1 6.8255 10.6931 35.8316 -3.50042
193 1 0.806925 9.04144 43.3819 -3.54095
194 1 3.23359 9.0434 44.1901 -3.54027
195 1 5.65833 9.04021 45.0032 -3.53948
196 1 0.000100553 9.0412 45.8108 -3.54015
197 1 1.61822 10.8458 44.9989 -3.5412
198 1 4.04269 10.8469 45.8123 -3.5395
199 1 6.46646 10.8476 46.6222 -3.53969
200 1 2.42584 9.04213 46.6198 -3.53994
201 1 4.85053 9.04129 47.43 -3.53974
202 1 7.27549 9.04185 48.2382 -3.54
203 1 0.809146 10.8474 47.4287 -3.54033
204 1 3.23389 10.8484 48.2385 -3.53981
205 1 5.65841 10.849 49.0474 -3.53987
206 1 0.000273612 10.8492 49.8553 -3.54008
207 1 1.61721 9.04226 49.0469 -3.53993
208 1 4.04186 9.04214 49.8557 -3.53987
209 1 6.46671 9.0425 50.6638 -3.53993
210 1 2.42501 10.85 50.6638 -3.53991
211 1 4.85208 10.8471 43.3855 -3.53844
212 1 7.27367 10.848 44.1979 -3.53882
213 1 0.808337 9.0425 51.4722 -3.53997
214 1 3.23335 9.0425 52.2805 -3.54001
215 1 5.65837 9.0425 53.0888 -3.54002
216 1 8.08338 9.0425 53.8972 -3.54001
217 1 1.61668 10.85 53.0888 -3.54
218 1 4.04169 10.85 53.8972 -3.54
219 1 6.46671 10.85 54.7055 -3.54
220 1 2.42501 9.0425 54.7055 -3.54
221 1 4.85003 9.0425 55.5138 -3.54
222 1 7.27505 9.0425 56.3222 -3.54
223 1 0.808337 10.85 55.5138 -3.54
224 1 3.23335 10.85 56.3222 -3.54
225 1 5.65837 10.85 57.1305 -3.54
226 1 8.08338 10.85 57.9389 -3.54
227 1 1.61668 9.0425 57.1305 -3.54
228 1 4.04169 9.0425 57.9389 -3.54
229 1 6.46671 9.0425 58.7472 -3.54
230 1 2.42501 10.85 58.7472 -3.54
231 1 4.85003 10.85 51.4722 -3.53997
232 1 7.27505 10.85 52.2805 -3.54005
233 1 0.808337 9.0425 59.5555 -3.54
234 1 3.23335 9.0425 60.3639 -3.54
235 1 5.65837 9.0425 61.1722 -3.54
236 1 8.08338 9.0425 61.9806 -3.54
237 1 1.61668 10.85 61.1722 -3.54
238 1 4.04169 10.85 61.9806 -3.54
239 1 6.46671 10.85 62.7889 -3.54
240 1 2.42501 9.0425 62.7889 -3.54
241 1 4.85003 9.0425 63.5972 -3.54
242 1 7.27505 9.0425 64.4056 -3.54
243 1 0.808337 10.85 63.5972 -3.54
244 1 3.23335 10.85 64.4056 -3.54
245 1 5.65837 10.85 65.2139 -3.54
246 1 8.08338 10.85 66.0222 -3.54048
247 1 1.61668 9.0425 65.2139 -3.54
248 1 4.04169 9.0425 66.0222 -3.54048
249 1 6.46671 9.0425 66.8306 -3.53371
250 1 2.42501 10.85 66.8306 -3.53371
251 1 4.85003 10.85 59.5555 -3.54
252 1 7.27505 10.85 60.3639 -3.54
253 1 0.808337 9.0425 67.6389 -3.50249
254 1 3.23335 9.0425 68.4473 -3.39542
255 1 5.65837 9.0425 69.2556 -3.14502
256 1 8.08338 9.0425 70.0639 -2.6938
257 1 1.61668 10.85 69.2556 -3.14502
258 1 4.04169 10.85 70.0639 -2.6938
259 1 4.85003 10.85 67.6389 -3.50249
260 1 7.27505 10.85 68.4473 -3.39542
261 1 2.8758 12.9022 35.9339 -3.4962
262 1 5.75084 12.6872 36.9857 -3.3804
263 1 0.0352569 12.5831 37.5996 -3.54205
264 1 1.48527 14.543 37.0431 -3.39641
265 1 4.02604 14.4241 37.7344 -3.53384
266 1 6.49288 14.4777 38.5545 -3.53027
267 1 2.43162 12.6874 38.5343 -3.51019
268 1 4.85137 12.6473 39.3415 -3.52282
269 1 7.27778 12.6506 40.1213 -3.54328
270 1 0.784319 14.4665 39.3805 -3.52657
271 1 3.23719 14.4559 40.1704 -3.53292
272 1 5.66034 14.4583 40.9615 -3.54242
273 1 8.07808 14.4574 41.7831 -3.53884
274 1 1.62013 12.6572 40.9678 -3.53607
275 1 4.04335 12.6474 41.7674 -3.5371
276 1 6.46792 12.6546 42.5731 -3.54127
277 1 2.42647 14.4597 42.5874 -3.53903
278 1 4.99629 14.3578 35.4166 -3.3547
279 1 7.25549 14.5711 36.1605 -3.41006
280 1 0.810028 12.6531 43.3926 -3.5385
281 1 3.23444 12.6505 44.1944 -3.53978
282 1 5.65845 12.6541 45.0038 -3.54042
283 1 0.00045594 12.6533 45.8157 -3.53952
284 1 1.61753 14.461 45.0086 -3.53953
285 1 4.04131 14.4613 45.8123 -3.5406
286 1 6.46595 14.4615 46.6247 -3.53967
287 1 2.42556 12.6533 46.6207 -3.54016
288 1 4.84992 12.6551 47.4301 -3.54011
289 1 7.27518 12.6552 48.2396 -3.5398
290 1 0.808515 14.4626 47.4314 -3.53991
291 1 3.23303 14.4631 48.2379 -3.54035
292 1 5.65792 14.4637 49.0478 -3.53982
293 1 0.000157002 14.4643 49.8556 -3.54002
294 1 1.61692 12.6559 49.0466 -3.54013
295 1 4.04155 12.6568 49.8554 -3.54001
296 1 6.46671 12.6575 50.6638 -3.53992
297 1 2.42501 14.465 50.6638 -3.54016
298 1 4.84943 14.4595 43.3864 -3.54134
299 1 7.27368 14.4592 44.2029 -3.53938
300 1 0.808337 12.6575 51.4722 -3.54005
301 1 3.23335 12.6575 52.2805 -3.54
302 1 5.65837 12.6575 53.0888 -3.54
303 1 8.08338 12.6575 53.8972 -3.54
304 1 1.61668 14.465 53.0888 -3.53999
305 1 4.04169 14.465 53.8972 -3.54
306 1 6.46671 14.465 54.7055 -3.54
307 1 2.42501 12.6575 54.7055 -3.54
308 1 4.85003 12.6575 55.5138 -3.54
309 1 7.27505 12.6575 56.3222 -3.54
310 1 0.808337 14.465 55.5138 -3.54
311 1 3.23335 14.465 56.3222 -3.54
312 1 5.65837 14.465 57.1305 -3.54
313 1 8.08338 14.465 57.9389 -3.54
314 1 1.61668 12.6575 57.1305 -3.54
315 1 4.04169 12.6575 57.9389 -3.54
316 1 6.46671 12.6575 58.7472 -3.54
317 1 2.42501 14.465 58.7472 -3.54
318 1 4.85003 14.465 51.4722 -3.53993
319 1 7.27505 14.465 52.2805 -3.54
320 1 0.808337 12.6575 59.5555 -3.54
321 1 3.23335 12.6575 60.3639 -3.54
322 1 5.65837 12.6575 61.1722 -3.54
323 1 8.08338 12.6575 61.9806 -3.54
324 1 1.61668 14.465 61.1722 -3.54
325 1 4.04169 14.465 61.9806 -3.54
326 1 6.46671 14.465 62.7889 -3.54
327 1 2.42501 12.6575 62.7889 -3.54
328 1 4.85003 12.6575 63.5972 -3.54
329 1 7.27505 12.6575 64.4056 -3.54
330 1 0.808337 14.465 63.5972 -3.54
331 1 3.23335 14.465 64.4056 -3.54
332 1 5.65837 14.465 65.2139 -3.54
333 1 8.08338 14.465 66.0222 -3.54048
334 1 1.61668 12.6575 65.2139 -3.54
335 1 4.04169 12.6575 66.0222 -3.54048
336 1 6.46671 12.6575 66.8306 -3.53371
337 1 2.42501 14.465 66.8306 -3.53371
338 1 4.85003 14.465 59.5555 -3.54
339 1 7.27505 14.465 60.3639 -3.54
340 1 0.808337 12.6575 67.6389 -3.50249
341 1 3.23335 12.6575 68.4473 -3.39542
342 1 5.65837 12.6575 69.2556 -3.14502
343 1 8.08338 12.6575 70.0639 -2.6938
344 1 1.61668 14.465 69.2556 -3.14502
345 1 4.04169 14.465 70.0639 -2.6938
346 1 4.85003 14.465 67.6389 -3.50249
347 1 7.27505 14.465 68.4473 -3.39542
348 1 3.08438 16.0941 36.0883 -3.46566
349 1 5.62054 16.2462 36.9571 -3.4311
350 1 8.04437 16.3943 37.7385 -3.52205
351 1 1.74222 18.08 37.1245 -3.32097
352 1 4.09409 18.08 37.5557 -3.49975
353 1 6.42826 18.08 38.5343 -3.49068
354 1 2.44923 16.2514 38.5871 -3.51384
355 1 4.84868 16.2711 39.344 -3.53382
356 1 7.26771 16.2808 40.1741 -3.53726
357 1 0.803215 18.08 39.4292 -3.51146
358 1 3.25372 18.08 40.118 -3.54918
359 1 5.65895 18.08 40.9716 -3.53738
360 1 8.07594 18.08 41.8088 -3.53208
361 1 1.61849 16.267 40.9875 -3.53802
362 1 4.04475 16.2735 41.7689 -3.54146
363 1 6.46334 16.2669 42.5911 -3.53967
364 1 2.43095 18.08 42.5725 -3.54502
365 1 6.8155 18.08 35.7539 -3.49887
366 1 0.807414 16.2682 43.4001 -3.53954
367 1 3.23469 16.2717 44.1954 -3.54103
368 1 5.65649 16.2686 45.0101 -3.53971
369 1 8.08239 16.2701 45.8186 -3.53977
370 1 1.61774 18.08 45.0038 -3.54195
371 1 4.04161 18.08 45.8148 -3.5399
372 1 6.46442 18.08 46.6272 -3.53936
373 1 2.42531 16.2715 46.6209 -3.54053
374 1 4.84889 16.2706 47.4318 -3.53987
375 1 7.27443 16.2714 48.2403 -3.53988
376 1 0.808327 18.08 47.4299 -3.54062
377 1 3.23299 18.08 48.2386 -3.54004
378 1 5.65735 18.08 49.0483 -3.53975
379 1 0.00012437 18.08 49.8551 -3.54025
380 1 1.6167 16.272 49.0464 -3.54031
381 1 4.04122 16.2719 49.8555 -3.53995
382 1 6.46671 16.2725 50.6638 -3.54
383 1 2.42501 18.08 50.6638 -3.54011
384 1 4.85125 18.08 43.3929 -3.53927
385 1 7.27066 18.08 44.2116 -3.53793
386 1 0.808337 16.2725 51.4722 -3.54011
387 1 3.23335 16.2725 52.2805 -3.53994
388 1 5.65837 16.2725 53.0888 -3.54
389 1 8.08338 16.2725 53.8972 -3.53999
390 1 1.61668 18.08 53.0888 -3.53997
391 1 4.04169 18.08 53.8972 -3.53999
392 1 6.46671 18.08 54.7055 -3.54
393 1 2.42501 16.2725 54.7055 -3.54
394 1 4.85003 16.2725 55.5138 -3.54
395 1 7.27505 16.2725 56.3222 -3.54
396 1 0.808337 18.08 55.5138 -3.54
397 1 3.23335 18.08 56.3222 -3.54
398 1 5.65837 18.08 57.1305 -3.54
399 1 8.08338 18.08 57.9389 -3.54
400 1 1.61668 16.2725 57.1305 -3.54
401 1 4.04169 16.2725 57.9389 -3.54
402 1 6.46671 16.2725 58.7472 -3.54
403 1 2.42501 18.08 58.7472 -3.54
404 1 4.85003 18.08 51.4722 -3.53994
405 1 7.27505 18.08 52.2805 -3.54004
406 1 0.808337 16.2725 59.5555 -3.54
407 1 3.23335 16.2725 60.3639 -3.54
408 1 5.65837 16.2725 61.1722 -3.54
409 1 8.08338 16.2725 61.9806 -3.54
410 1 1.61668 18.08 61.1722 -3.54
411 1 4.04169 18.08 61.9806 -3.54
412 1 6.46671 18.08 62.7889 -3.54
413 1 2.42501 16.2725 62.7889 -3.54
414 1 4.85003 16.2725 63.5972 -3.54
415 1 7.27505 16.2725 64.4056 -3.54
416 1 0.808337 18.08 63.5972 -3.54
417 1 3.23335 18.08 64.4056 -3.54
418 1 5.65837 18.08 65.2139 -3.54
419 1 8.08338 18.08 66.0222 -3.54048
420 1 1.61668 16.2725 65.2139 -3.54
421 1 4.04169 16.2725 66.0222 -3.54048
422 1 6.46671 16.2725 66.8306 -3.53371
423 1 2.42501 18.08 66.8306 -3.53371
424 1 4.85003 18.08 59.5555 -3.54
425 1 7.27505 18.08 60.3639 -3.54
426 1 0.808337 16.2725 67.6389 -3.50249
427 1 3.23335 16.2725 68.4473 -3.39542
428 1 5.65837 16.2725 69.2556 -3.14502
429 1 8.08338 16.2725 70.0639 -2.6938
430 1 1.61668 18.08 69.2556 -3.14502
431 1 4.04169 18.08 70.0639 -2.6938
432 1 4.85003 18.08 67.6389 -3.50249
433 1 7.27505 18.08 68.4473 -3.39542
434 1 0.814145 19.4234 35.402 -3.34963
435 1 3.08438 20.0659 36.0883 -3.46566
436 1 5.62054 19.9138 36.9571 -3.4311
437 1 8.04436 19.7657 37.7385 -3.52205
438 1 1.48527 21.617 37.0431 -3.39641
439 1 4.02604 21.7359 37.7344 -3.53384
440 1 6.49288 21.6823 38.5545 -3.53027
441 1 2.44923 19.9086 38.5871 -3.51384
442 1 4.84868 19.8889 39.344 -3.53382
443 1 7.26771 19.8792 40.1741 -3.53726
444 1 0.784319 21.6935 39.3805 -3.52657
445 1 3.23719 21.7041 40.1704 -3.53292
446 1 5.66034 21.7017 40.9615 -3.54242
447 1 8.07808 21.7026 41.7831 -3.53884
448 1 1.61849 19.893 40.9875 -3.53802
449 1 4.04475 19.8865 41.7689 -3.54146
450 1 6.46334 19.8931 42.5911 -3.53967
451 1 2.42647 21.7003 42.5874 -3.53903
452 1 7.25549 21.5889 36.1605 -3.41006
453 1 0.807414 19.8918 43.4001 -3.53954
454 1 3.23469 19.8883 44.1954 -3.54103
455 1 5.65649 19.8914 45.0101 -3.53971
456 1 8.0824 19.8899 45.8186 -3.53977
457 1 1.61753 21.699 45.0086 -3.53953
458 1 4.04131 21.6987 45.8123 -3.5406
459 1 6.46595 21.6985 46.6247 -3.53967
460 1 2.42531 19.8885 46.6209 -3.54053
461 1 4.84889 19.8894 47.4318 -3.53987
462 1 7.27443 19.8886 48.2403 -3.53988
463 1 0.808515 21.6974 47.4314 -3.53991
464 1 3.23303 21.6969 48.2379 -3.54035
465 1 5.65792 21.6963 49.0478 -3.53982
466 1 0.000157046 21.6957 49.8556 -3.54002
467 1 1.6167 19.888 49.0464 -3.54031
468 1 4.04122 19.8881 49.8555 -3.53995
469 1 6.46671 19.8875 50.6638 -3.54
470 1 2.42501 21.695 50.6638 -3.54016
471 1 4.84943 21.7005 43.3864 -3.54134
472 1 7.27368 21.7008 44.2029 -3.53938
473 1 0.808337 19.8875 51.4722 -3.54011
474 1 3.23335 19.8875 52.2805 -3.53994
475 1 5.65837 19.8875 53.0888 -3.54
476 1 8.08338 19.8875 53.8972 -3.53999
477 1 1.61668 21.695 53.0888 -3.53999
478 1 4.04169 21.695 53.8972 -3.54
479 1 6.46671 21.695 54.7055 -3.54
480 1 2.42501 19.8875 54.7055 -3.54
481 1 4.85003 19.8875 55.5138 -3.54
482 1 7.27505 19.8875 56.3222 -3.54
483 1 0.808337 21.695 55.5138 -3.54
484 1 3.23335 21.695 56.3222 -3.54
485 1 5.65837 21.695 57.1305 -3.54
486 1 8.08338 21.695 57.9389 -3.54
487 1 1.61668 19.8875 57.1305 -3.54
488 1 4.04169 19.8875 57.9389 -3.54
489 1 6.46671 19.8875 58.7472 -3.54
490 1 2.42501 21.695 58.7472 -3.54
491 1 4.85003 21.695 51.4722 -3.53993
492 1 7.27505 21.695 52.2805 -3.54
493 1 0.808337 19.8875 59.5555 -3.54
494 1 3.23335 19.8875 60.3639 -3.54
495 1 5.65837 19.8875 61.1722 -3.54
496 1 8.08338 19.8875 61.9806 -3.54
497 1 1.61668 21.695 61.1722 -3.54
498 1 4.04169 21.695 61.9806 -3.54
499 1 6.46671 21.695 62.7889 -3.54
500 1 2.42501 19.8875 62.7889 -3.54
501 1 4.85003 19.8875 63.5972 -3.54
502 1 7.27505 19.8875 64.4056 -3.54
503 1 0.808337 21.695 63.5972 -3.54
504 1 3.23335 21.695 64.4056 -3.54
505 1 5.65837 21.695 65.2139 -3.54
506 1 8.08338 21.695 66.0222 -3.54048
507 1 1.61668 19.8875 65.2139 -3.54
508 1 4.04169 19.8875 66.0222 -3.54048
509 1 6.46671 19.8875 66.8306 -3.53371
510 1 2.42501 21.695 66.8306 -3.53371
511 1 4.85003 21.695 59.5555 -3.54
512 1 7.27505 21.695 60.3639 -3.54
513 1 0.808337 19.8875 67.6389 -3.50249
514 1 3.23335 19.8875 68.4473 -3.39542
515 1 5.65837 19.8875 69.2556 -3.14502
516 1 8.08338 19.8875 70.0639 -2.6938
517 1 1.61668 21.695 69.2556 -3.14502
518 1 4.04169 21.695 70.0639 -2.6938
519 1 4.85003 21.695 67.6389 -3.50249
520 1 7.27505 21.695 68.4473 -3.39542
521 1 2.87579 23.2578 35.9339 -3.4962
522 1 5.75084 23.4728 36.9857 -3.38039
523 1 0.0352563 23.5768 37.5996 -3.54205
524 1 1.7418 25.3124 37.0528 -3.34468
525 1 4.10547 25.2344 37.5014 -3.53032
526 1 6.45242 25.3111 38.5136 -3.50392
527 1 2.43162 23.4726 38.5343 -3.51019
528 1 4.85137 23.5127 39.3415 -3.52282
529 1 7.27778 23.5094 40.1213 -3.54328
530 1 0.804821 25.2925 39.3741 -3.51571
531 1 3.24636 25.2988 40.0943 -3.54443
532 1 5.66121 25.3084 40.9569 -3.53523
533 1 8.07969 25.3053 41.7784 -3.53448
534 1 1.62013 23.5028 40.9679 -3.53607
535 1 4.04335 23.5126 41.7674 -3.5371
536 1 6.46792 23.5054 42.5731 -3.54127
537 1 2.42937 25.3124 42.5608 -3.54326
538 1 4.77146 24.2722 34.9137 -3.32302
539 1 6.8255 25.4669 35.8316 -3.50042
540 1 0.810028 23.5069 43.3926 -3.5385
541 1 3.23444 23.5095 44.1944 -3.53978
542 1 5.65845 23.5059 45.0038 -3.54042
543 1 0.000456172 23.5067 45.8157 -3.53952
544 1 1.61822 25.3142 44.9989 -3.5412
545 1 4.0427 25.3131 45.8123 -3.5395
546 1 6.46646 25.3124 46.6222 -3.53969
547 1 2.42556 23.5067 46.6207 -3.54016
548 1 4.84992 23.5049 47.4301 -3.54011
549 1 7.27518 23.5048 48.2396 -3.5398
550 1 0.809146 25.3126 47.4287 -3.54033
551 1 3.23389 25.3116 48.2385 -3.53981
552 1 5.65841 25.311 49.0474 -3.53987
553 1 0.000273659 25.3108 49.8553 -3.54008
554 1 1.61693 23.5041 49.0466 -3.54013
555 1 4.04155 23.5032 49.8554 -3.54001
556 1 6.46671 23.5025 50.6638 -3.53992
557 1 2.42501 25.31 50.6638 -3.53991
558 1 4.85208 25.3129 43.3855 -3.53844
559 1 7.27367 25.312 44.1979 -3.53882
560 1 0.808337 23.5025 51.4722 -3.54005
561 1 3.23335 23.5025 52.2805 -3.54
562 1 5.65837 23.5025 53.0888 -3.54
563 1 8.08338 23.5025 53.8972 -3.54
564 1 1.61668 25.31 53.0888 -3.54
565 1 4.04169 25.31 53.8972 -3.54
566 1 6.46671 25.31 54.7055 -3.54
567 1 2.42501 23.5025 54.7055 -3.54
568 1 4.85003 23.5025 55.5138 -3.54
569 1 7.27505 23.5025 56.3222 -3.54
570 1 0.808337 25.31 55.5138 -3.54
571 1 3.23335 25.31 56.3222 -3.54
572 1 5.65837 25.31 57.1305 -3.54
573 1 8.08338 25.31 57.9389 -3.54
574 1 1.61668 23.5025 57.1305 -3.54
575 1 4.04169 23.5025 57.9389 -3.54
576 1 6.46671 23.5025 58.7472 -3.54
577 1 2.42501 25.31 58.7472 -3.54
578 1 4.85003 25.31 51.4722 -3.53997
579 1 7.27505 25.31 52.2805 -3.54005
580 1 0.808337 23.5025 59.5555 -3.54
581 1 3.23335 23.5025 60.3639 -3.54
582 1 5.65837 23.5025 61.1722 -3.54
583 1 8.08338 23.5025 61.9806 -3.54
584 1 1.61668 25.31 61.1722 -3.54
585 1 4.04169 25.31 61.9806 -3.54
586 1 6.46671 25.31 62.7889 -3.54
587 1 2.42501 23.5025 62.7889 -3.54
588 1 4.85003 23.5025 63.5972 -3.54
589 1 7.27505 23.5025 64.4056 -3.54
590 1 0.808337 25.31 63.5972 -3.54
591 1 3.23335 25.31 64.4056 -3.54
592 1 5.65837 25.31 65.2139 -3.54
593 1 8.08338 25.31 66.0222 -3.54048
594 1 1.61668 23.5025 65.2139 -3.54
595 1 4.04169 23.5025 66.0222 -3.54048
596 1 6.46671 23.5025 66.8306 -3.53371
597 1 2.42501 25.31 66.8306 -3.53371
598 1 4.85003 25.31 59.5555 -3.54
599 1 7.27505 25.31 60.3639 -3.54
600 1 0.808337 23.5025 67.6389 -3.50249
601 1 3.23335 23.5025 68.4473 -3.39542
602 1 5.65837 23.5025 69.2556 -3.14502
603 1 8.08338 23.5025 70.0639 -2.6938
604 1 1.61668 25.31 69.2556 -3.14502
605 1 4.04169 25.31 70.0639 -2.6938
606 1 4.85003 25.31 67.6389 -3.50249
607 1 7.27505 25.31 68.4473 -3.39542
608 1 0.874879 26.8368 35.4272 -3.36213
609 1 3.15067 27.2738 36.1318 -3.43463
610 1 5.54716 27.1915 36.9975 -3.41523
611 1 8.04345 27.0183 37.7379 -3.52351
612 1 1.50547 28.851 36.9975 -3.41523
613 1 4.00175 29.0242 37.7379 -3.52351
614 1 6.49244 28.915 38.562 -3.51928
615 1 2.45074 27.1275 38.562 -3.51928
616 1 4.83538 27.1121 39.3465 -3.5293
617 1 7.27056 27.1061 40.1599 -3.53447
618 1 0.793689 28.9304 39.3465 -3.5293
619 1 3.22886 28.9364 40.1599 -3.53447
620 1 5.65769 28.9274 40.9585 -3.5411
621 1 8.08079 28.9309 41.7597 -3.54081
622 1 1.616 27.1151 40.9585 -3.5411
623 1 4.0391 27.1116 41.7597 -3.54081
624 1 6.4646 27.1193 42.5772 -3.53951
625 1 2.4229 28.9232 42.5772 -3.53951
626 1 7.19236 28.7687 36.1318 -3.43463
627 1 0.806925 27.1186 43.382 -3.54095
628 1 3.23359 27.1166 44.1901 -3.54027
629 1 5.65833 27.1198 45.0032 -3.53948
630 1 0.000100795 27.1188 45.8108 -3.54015
631 1 1.61664 28.9227 45.0032 -3.53948
632 1 4.04179 28.9237 45.8108 -3.54015
633 1 6.46753 28.9246 46.6198 -3.53994
634 1 2.42584 27.1179 46.6198 -3.53994
635 1 4.85053 27.1187 47.43 -3.53974
636 1 7.27549 27.1181 48.2382 -3.54
637 1 0.808841 28.9238 47.43 -3.53974
638 1 3.2338 28.9244 48.2382 -3.54
639 1 5.65891 28.9248 49.0469 -3.53993
640 1 0.000165299 28.9246 49.8557 -3.53987
641 1 1.61721 27.1177 49.0469 -3.53993
642 1 4.04186 27.1179 49.8557 -3.53987
643 1 6.46671 27.1175 50.6638 -3.53993
644 1 2.42501 28.925 50.6638 -3.53993
645 1 4.84862 28.9239 43.382 -3.54095
646 1 7.27528 28.9259 44.1901 -3.54027
647 1 0.808337 27.1175 51.4722 -3.53997
648 1 3.23335 27.1175 52.2805 -3.54001
649 1 5.65837 27.1175 53.0888 -3.54002
650 1 8.08338 27.1175 53.8972 -3.54001
651 1 1.61668 28.925 53.0888 -3.54002
652 1 4.04169 28.925 53.8972 -3.54001
653 1 6.46671 28.925 54.7055 -3.54
654 1 2.42501 27.1175 54.7055 -3.54
655 1 4.85003 27.1175 55.5138 -3.54
656 1 7.27505 27.1175 56.3222 -3.54
657 1 0.808337 28.925 55.5138 -3.54
658 1 3.23335 28.925 56.3222 -3.54
659 1 5.65837 28.925 57.1305 -3.54
660 1 8.08338 28.925 57.9389 -3.54
661 1 1.61668 27.1175 57.1305 -3.54
662 1 4.04169 27.1175 57.9389 -3.54
663 1 6.46671 27.1175 58.7472 -3.54
664 1 2.42501 28.925 58.7472 -3.54
665 1 4.85003 28.925 51.4722 -3.53997
666 1 7.27505 28.925 52.2805 -3.54001
667 1 0.808337 27.1175 59.5555 -3.54
668 1 3.23335 27.1175 60.3639 -3.54
669 1 5.65837 27.1175 61.1722 -3.54
670 1 8.08338 27.1175 61.9806 -3.54
671 1 1.61668 28.925 61.1722 -3.54
672 1 4.04169 28.925 61.9806 -3.54
673 1 6.46671 28.925 62.7889 -3.54
674 1 2.42501 27.1175 62.7889 -3.54
675 1 4.85003 27.1175 63.5972 -3.54
676 1 7.27505 27.1175 64.4056 -3.54
677 1 0.808337 28.925 63.5972 -3.54
678 1 3.23335 28.925 64.4056 -3.54
679 1 5.65837 28.925 65.2139 -3.54
680 1 8.08338 28.925 66.0222 -3.54048
681 1 1.61668 27.1175 65.2139 -3.54
682 1 4.04169 27.1175 66.0222 -3.54048
683 1 6.46671 27.1175 66.8306 -3.53371
684 1 2.42501 28.925 66.8306 -3.53371
685 1 4.85003 28.925 59.5555 -3.54
686 1 7.27505 28.925 60.3639 -3.54
687 1 0.808337 27.1175 67.6389 -3.50249
688 1 3.23335 27.1175 68.4473 -3.39542
689 1 5.65837 27.1175 69.2556 -3.14502
690 1 8.08338 27.1175 70.0639 -2.6938
691 1 1.61668 28.925 69.2556 -3.14502
692 1 4.04169 28.925 70.0639 -2.6938
693 1 4.85003 28.925 67.6389 -3.50249
694 1 7.27505 28.925 68.4473 -3.39542
695 1 2.7838 30.5756 35.8316 -3.50042
696 1 5.78349 30.73 37.0528 -3.34468
697 1 0.0637759 30.8081 37.5014 -3.53032
698 1 1.70915 32.5697 36.9857 -3.3804
699 1 4.07695 32.4656 37.5996 -3.54205
700 1 6.47332 32.5699 38.5343 -3.51019
701 1 2.41072 30.7314 38.5136 -3.50392
702 1 4.84651 30.75 39.3741 -3.51571
703 1 7.28805 30.7437 40.0943 -3.54443
704 1 0.809681 32.5298 39.3415 -3.52282
705 1 3.23608 32.5331 40.1213 -3.54328
706 1 5.66182 32.5397 40.9678 -3.53607
707 1 0.00165882 32.5299 41.7674 -3.5371
708 1 1.61952 30.7341 40.9569 -3.53523
709 1 4.038 30.7372 41.7784 -3.53448
710 1 6.47106 30.7301 42.5608 -3.54326
711 1 2.42623 32.5371 42.5731 -3.54127
712 1 4.77146 31.7703 35.1503 -3.32302
713 1 6.91749 32.7847 35.9339 -3.4962
714 1 0.810384 30.7296 43.3855 -3.53844
715 1 3.23198 30.7305 44.1979 -3.53882
716 1 5.65991 30.7283 44.9989 -3.5412
717 1 0.00100249 30.7294 45.8123 -3.5395
718 1 1.61676 32.5366 45.0038 -3.54042
719 1 4.04215 32.5358 45.8157 -3.53952
720 1 6.46725 32.5358 46.6207 -3.54016
721 1 2.42477 30.7301 46.6222 -3.53969
722 1 4.85084 30.7299 47.4287 -3.54033
723 1 7.27559 30.7309 48.2385 -3.53981
724 1 0.808232 32.5376 47.4301 -3.54011
725 1 3.23349 32.5377 48.2396 -3.5398
726 1 5.65862 32.5384 49.0466 -3.54013
727 1 8.08324 32.5393 49.8554 -3.54001
728 1 1.61671 30.7315 49.0474 -3.53987
729 1 4.04197 30.7317 49.8553 -3.54008
730 1 6.46671 30.7325 50.6638 -3.53991
731 1 2.42501 32.54 50.6638 -3.53992
732 1 4.85172 32.5356 43.3926 -3.5385
733 1 7.27614 32.533 44.1944 -3.53978
734 1 0.808337 30.7325 51.4722 -3.53997
735 1 3.23335 30.7325 52.2805 -3.54005
736 1 5.65837 30.7325 53.0888 -3.54
737 1 8.08338 30.7325 53.8972 -3.54
738 1 1.61668 32.54 53.0888 -3.54
739 1 4.04169 32.54 53.8972 -3.54
740 1 6.46671 32.54 54.7055 -3.54
741 1 2.42501 30.7325 54.7055 -3.54
742 1 4.85003 30.7325 55.5138 -3.54
743 1 7.27505 30.7325 56.3222 -3.54
744 1 0.808337 32.54 55.5138 -3.54
745 1 3.23335 32.54 56.3222 -3.54
746 1 5.65837 32.54 57.1305 -3.54
747 1 8.08338 32.54 57.9389 -3.54
748 1 1.61668 30.7325 57.1305 -3.54
749 1 4.04169 30.7325 57.9389 -3.54
750 1 6.46671 30.7325 58.7472 -3.54
751 1 2.42501 32.54 58.7472 -3.54
752 1 4.85003 32.54 51.4722 -3.54005
753 1 7.27505 32.54 52.2805 -3.54
754 1 0.808337 30.7325 59.5555 -3.54
755 1 3.23335 30.7325 60.3639 -3.54
756 1 5.65837 30.7325 61.1722 -3.54
757 1 8.08338 30.7325 61.9806 -3.54
758 1 1.61668 32.54 61.1722 -3.54
759 1 4.04169 32.54 61.9806 -3.54
760 1 6.46671 32.54 62.7889 -3.54
761 1 2.42501 30.7325 62.7889 -3.54
762 1 4.85003 30.7325 63.5972 -3.54
763 1 7.27505 30.7325 64.4056 -3.54
764 1 0.808337 32.54 63.5972 -3.54
765 1 3.23335 32.54 64.4056 -3.54
766 1 5.65837 32.54 65.2139 -3.54
767 1 8.08338 32.54 66.0222 -3.54048
768 1 1.61668 30.7325 65.2139 -3.54
769 1 4.04169 30.7325 66.0222 -3.54048
770 1 6.46671 30.7325 66.8306 -3.53371
771 1 2.42501 32.54 66.8306 -3.53371
772 1 4.85003 32.54 59.5555 -3.54
773 1 7.27505 32.54 60.3639 -3.54
774 1 0.808337 30.7325 67.6389 -3.50249
775 1 3.23335 30.7325 68.4473 -3.39542
776 1 5.65837 30.7325 69.2556 -3.14502
777 1 8.08338 30.7325 70.0639 -2.6938
778 1 1.61668 32.54 69.2556 -3.14502
779 1 4.04169 32.54 70.0639 -2.6938
780 1 4.85003 32.54 67.6389 -3.50249
781 1 7.27505 32.54 68.4473 -3.39542
782 1 0.954593 34.2403 35.4166 -3.35471
783 1 3.2138 34.4536 36.1605 -3.41006
784 1 5.52696 34.4255 37.0431 -3.39641
785 1 8.06773 34.3066 37.7344 -3.53384
786 1 1.57885 36.1287 36.9571 -3.4311
787 1 4.00267 36.2768 37.7385 -3.52205
788 1 6.49092 36.1339 38.5871 -3.51384
789 1 2.45118 34.3602 38.5545 -3.53027
790 1 4.82601 34.349 39.3805 -3.52657
791 1 7.27888 34.3384 40.1704 -3.53292
792 1 0.806985 36.1536 39.344 -3.53382
793 1 3.22602 36.1633 40.1741 -3.53726
794 1 5.66018 36.1495 40.9875 -3.53802
795 1 0.00305442 36.156 41.7689 -3.54146
796 1 1.61865 34.3408 40.9615 -3.54242
797 1 4.03639 34.3399 41.783 -3.53884
798 1 6.46816 34.3422 42.5874 -3.53903
799 1 2.42165 36.1494 42.5911 -3.53967
800 1 4.85584 36.6191 35.402 -3.34963
801 1 7.12607 35.9766 36.0883 -3.46566