ITEM: TIMESTEP
0
ITEM: NUMBER OF ATOMS
176
ITEM: BOX BOUNDS pp pp ss
0.0000000000000000e+00 8.0833857386617396e+00
0.0000000000000000e+00 3.6150000000000002e+00
-7.0728035473001209e-03 7.0654125907192736e+01
ITEM: ATOMS id type x y z c_eng
1 1 6.49763 0.00500657 35.5588 -3.49376
2 1 1.58793 0.00500704 36.9925 -3.24339
3 1 4.03051 0.00500705 36.5272 -3.48517
4 1 7.05964 0.0050089 38.1581 -3.50605
5 1 8.0722 1.81251 36.5272 -3.48517
6 1 3.01795 1.81251 38.1581 -3.50605
7 1 5.40061 1.81251 39.2821 -3.28142
8 1 1.35891 0.00501144 39.2821 -3.28142
9 1 3.80717 0.00501104 39.8347 -3.47416
10 1 6.2668 0.00501158 40.7359 -3.50146
11 1 7.84887 1.81251 39.8347 -3.47416
12 1 2.22511 1.81251 40.7359 -3.50146
13 1 4.60971 1.81251 41.5853 -3.50988
14 1 7.05125 1.81251 42.3333 -3.54245
15 1 0.568014 0.00501182 41.5853 -3.50988
16 1 3.00955 0.00501205 42.3333 -3.54245
17 1 5.43755 0.00501234 43.1643 -3.54021
18 1 1.39585 1.81251 43.1643 -3.54021
19 1 2.45594 1.81251 35.5588 -3.49376
20 1 5.62963 1.81251 36.9925 -3.24339
21 1 7.85411 0.00501252 43.9792 -3.53618
22 1 2.20012 0.00501278 44.7751 -3.54202
23 1 4.62528 0.00501305 45.5891 -3.54004
24 1 7.04866 0.0050133 46.3982 -3.53928
25 1 0.58359 1.81251 45.5891 -3.54004
26 1 3.00697 1.81251 46.3982 -3.53928
27 1 5.43302 1.81251 47.2041 -3.54046
28 1 1.39132 0.00501354 47.2041 -3.54046
29 1 3.81626 0.0050137 48.0138 -3.53996
30 1 6.24097 0.00501397 48.8221 -3.53986
31 1 7.85795 1.81251 48.0138 -3.53996
32 1 2.19927 1.81251 48.8221 -3.53986
33 1 4.62451 1.81251 49.63 -3.5401
34 1 7.0495 1.81251 50.4386 -3.53998
35 1 0.582818 0.00501421 49.63 -3.5401
36 1 3.00781 0.00501431 50.4386 -3.53998
37 1 5.43277 0.0050146 51.2469 -3.53998
38 1 1.39107 1.81251 51.2469 -3.53998
39 1 3.81242 1.81251 43.9792 -3.53618
40 1 6.24182 1.81251 44.7751 -3.54202
41 1 7.85778 0.0050146 52.0552 -3.54002
42 1 2.19941 0.0050146 52.8636 -3.53999
43 1 4.62443 0.0050146 53.6719 -3.54
44 1 7.04944 0.0050146 54.4802 -3.54
45 1 0.582734 1.81251 53.6719 -3.54
46 1 3.00775 1.81251 54.4802 -3.54
47 1 5.43277 1.81251 55.2886 -3.54
48 1 1.39107 0.0050146 55.2886 -3.54
49 1 3.81609 0.0050146 56.0969 -3.54
50 1 6.2411 0.0050146 56.9052 -3.54
51 1 7.85778 1.81251 56.0969 -3.54
52 1 2.19941 1.81251 56.9052 -3.54
53 1 4.62443 1.81251 57.7136 -3.54
54 1 7.04944 1.81251 58.5219 -3.54
55 1 0.582734 0.0050146 57.7136 -3.54
56 1 3.00775 0.0050146 58.5219 -3.54
57 1 5.43277 0.0050146 59.3303 -3.54
58 1 1.39107 1.81251 59.3303 -3.54
59 1 3.81609 1.81251 52.0552 -3.54002
60 1 6.2411 1.81251 52.8636 -3.53999
61 1 7.85778 0.0050146 60.1386 -3.54
62 1 2.19941 0.0050146 60.9469 -3.54
63 1 4.62443 0.0050146 61.7553 -3.54
64 1 7.04944 0.0050146 62.5636 -3.54
65 1 0.582734 1.81251 61.7553 -3.54
66 1 3.00775 1.81251 62.5636 -3.54
67 1 5.43277 1.81251 63.372 -3.54
68 1 1.39107 0.0050146 63.372 -3.54
69 1 3.81609 0.0050146 64.1803 -3.54
70 1 6.2411 0.0050146 64.9886 -3.54
71 1 7.85778 1.81251 64.1803 -3.54
72 1 2.19941 1.81251 64.9886 -3.54
73 1 4.62443 1.81251 65.797 -3.54
74 1 7.04944 1.81251 66.6053 -3.54048
75 1 0.582734 0.0050146 65.797 -3.54
76 1 3.00775 0.0050146 66.6053 -3.54048
77 1 5.43277 0.0050146 67.4136 -3.53371
78 1 1.39107 1.81251 67.4136 -3.53371
79 1 3.81609 1.81251 60.1386 -3.54
80 1 6.2411 1.81251 60.9469 -3.54
81 1 7.85778 0.0050146 68.222 -3.50249
82 1 2.19941 0.0050146 69.0303 -3.39542
83 1 4.62443 0.0050146 69.8387 -3.14502
84 1 7.04944 0.0050146 70.647 -2.6938
85 1 0.582734 1.81251 69.8387 -3.14502
86 1 3.00775 1.81251 70.647 -2.6938
87 1 3.81609 1.81251 68.222 -3.50249
88 1 6.2411 1.81251 69.0303 -3.39542
89 1 0 0.005 5e-05 -2.6938
90 1 0.808339 0.005 2.42507 -3.50249
91 1 1.61668 0.005 4.85008 -3.54
92 1 2.42502 0.005 7.2751 -3.54
93 1 0 1.8125 4.04174 -3.54048
94 1 0.808339 1.8125 6.46676 -3.54
95 1 1.61668 1.8125 0.808389 -3.14502
96 1 2.42502 1.8125 3.2334 -3.53371
97 1 3.23335 1.8125 5.65842 -3.54
98 1 3.23335 0.005 1.61673 -3.39542
99 1 4.04169 0.005 4.04174 -3.54048
100 1 4.85003 0.005 6.46676 -3.54
101 1 4.04169 1.8125 5e-05 -2.6938
102 1 4.85003 1.8125 2.42507 -3.50249
103 1 5.65837 1.8125 4.85008 -3.54
104 1 6.46671 1.8125 7.2751 -3.54
105 1 5.65837 0.005 0.808389 -3.14502
106 1 6.46671 0.005 3.2334 -3.53371
107 1 7.27505 0.005 5.65842 -3.54
108 1 7.27505 1.8125 1.61673 -3.39542
109 1 0 0.005 8.08344 -3.54
110 1 0.808339 0.005 10.5085 -3.54
111 1 1.61668 0.005 12.9335 -3.54
112 1 2.42502 0.005 15.3585 -3.54
113 1 0 1.8125 12.1251 -3.54
114 1 0.808339 1.8125 14.5501 -3.54
115 1 1.61668 1.8125 8.89177 -3.54
116 1 2.42502 1.8125 11.3168 -3.54
117 1 3.23335 1.8125 13.7418 -3.54
118 1 3.23335 0.005 9.70011 -3.54
119 1 4.04169 0.005 12.1251 -3.54
120 1 4.85003 0.005 14.5501 -3.54
121 1 4.04169 1.8125 8.08344 -3.54
122 1 4.85003 1.8125 10.5085 -3.54
123 1 5.65837 1.8125 12.9335 -3.54
124 1 6.46671 1.8125 15.3585 -3.54
125 1 5.65837 0.005 8.89177 -3.54
126 1 6.46671 0.005 11.3168 -3.54
127 1 7.27505 0.005 13.7418 -3.54
128 1 7.27505 1.8125 9.70011 -3.54
129 1 0 0.005 16.1668 -3.54
130 1 0.808339 0.005 18.5918 -3.54
131 1 1.61668 0.00500079 21.0168 -3.54
132 1 2.42502 0.00500186 23.4418 -3.53999
133 1 8.08338 1.8125 20.2085 -3.54
134 1 0.80833 1.8125 22.6335 -3.54
135 1 1.61668 1.8125 16.9752 -3.54
136 1 2.42502 1.8125 19.4002 -3.54
137 1 3.23336 1.8125 21.8252 -3.54001
138 1 3.23335 0.005 17.7835 -3.54
139 1 4.04169 0.00500047 20.2085 -3.54
140 1 4.85002 0.00500152 22.6335 -3.54
141 1 4.04169 1.8125 16.1668 -3.54
142 1 4.85003 1.8125 18.5918 -3.54
143 1 5.65837 1.8125 21.0168 -3.54
144 1 6.46671 1.8125 23.4418 -3.53999
145 1 5.65837 0.005 16.9752 -3.54
146 1 6.46671 0.005 19.4002 -3.54
147 1 7.27505 0.00500117 21.8252 -3.54001
148 1 7.27505 1.8125 17.7835 -3.54
149 1 2.11072e-05 0.00500217 24.2503 -3.54003
150 1 0.808427 0.00500324 26.6755 -3.54013
151 1 1.61702 0.00500419 29.1016 -3.5406
152 1 2.42623 0.00500508 31.5318 -3.54258
153 1 0.000128602 1.8125 28.2915 -3.53989
154 1 0.809175 1.8125 30.7156 -3.53981
155 1 1.61664 1.8125 25.0585 -3.53997
156 1 2.42481 1.8125 27.4833 -3.53985
157 1 3.23233 1.8125 29.9071 -3.5392
158 1 3.23337 0.00500288 25.8668 -3.53997
159 1 4.04182 0.00500382 28.2915 -3.53989
160 1 4.85087 0.00500473 30.7156 -3.53981
161 1 4.04171 1.8125 24.2503 -3.54003
162 1 4.85012 1.8125 26.6755 -3.54013
163 1 5.65872 1.8125 29.1016 -3.5406
164 1 6.46792 1.81251 31.5318 -3.54258
165 1 5.65833 0.00500254 25.0585 -3.53997
166 1 6.4665 0.0050035 27.4833 -3.53985
167 1 7.27402 0.00500446 29.9071 -3.5392
168 1 7.27506 1.8125 25.8668 -3.53997
169 1 8.07871 0.00500537 32.3253 -3.53516
170 1 0.789216 0.00500618 34.7149 -3.50065
171 1 1.62154 1.81251 33.1385 -3.53857
172 1 3.23717 0.00500604 33.9789 -3.54048
173 1 4.03701 1.81251 32.3253 -3.53516
174 1 4.83091 1.81251 34.7149 -3.50065
175 1 5.66323 0.00500566 33.1385 -3.53857
176 1 7.27886 1.81251 33.9789 -3.54048
Egb = 0.951019002161011
