ITEM: TIMESTEP
0
ITEM: NUMBER OF ATOMS
164
ITEM: BOX BOUNDS pp pp ss
0.0000000000000000e+00 8.2225188994253315e+00
0.0000000000000000e+00 4.4757723786629278e+00
-7.3131749262502557e-03 7.0464569430593116e+01
ITEM: ATOMS id type x y z c_eng
1 1 3.53892 0.00500126 35.8665 -7.74216
2 1 4.56663 0.00500169 38.1379 -8.16365
3 1 5.24169 0.00500177 40.7855 -8.8305
4 1 6.17127 0.00500177 43.3356 -8.76218
5 1 7.08222 0.00500189 45.9115 -8.75681
6 1 7.99509 0.00500204 48.4933 -8.75921
7 1 0.686006 0.00500227 51.0767 -8.75967
8 1 1.5995 0.00500241 53.6606 -8.75993
9 1 2.51312 0.00500241 56.2447 -8.75999
10 1 3.69126 2.24289 40.2991 -8.65731
11 1 4.63894 2.24289 42.8983 -8.79662
12 1 5.55838 2.24289 45.4797 -8.76622
13 1 6.47207 2.24289 48.0627 -8.76105
14 1 7.38574 2.24289 50.6462 -8.76018
15 1 0.0768133 2.24289 53.23 -8.75997
16 1 0.990426 2.24289 55.814 -8.75999
17 1 1.90404 2.24289 58.3981 -8.75999
18 1 5.20444 2.24289 35.9104 -8.67266
19 1 5.77414 2.24289 38.7595 -7.92288
20 1 6.78821 2.24289 41.202 -8.67645
21 1 7.69572 2.24289 43.759 -8.737
22 1 0.382218 2.24289 46.3399 -8.75624
23 1 1.29524 2.24289 48.9232 -8.75919
24 1 2.20858 2.24289 51.5072 -8.75974
25 1 3.12219 2.24289 54.0913 -8.75999
26 1 6.71025 0.00500113 35.6192 -8.81557
27 1 7.3687 0.00500173 38.9908 -8.73634
28 1 0.0907173 0.00500178 41.5859 -8.80553
29 1 0.991029 0.00500183 44.1823 -8.75941
30 1 1.90414 0.00500194 46.7686 -8.76012
31 1 2.81766 0.00500211 49.3534 -8.75977
32 1 7.8115 2.24289 37.202 -7.6356
33 1 0.720613 2.24289 39.4849 -8.52899
34 1 1.6059 2.24289 42.0254 -8.64798
35 1 2.51203 2.24289 44.6135 -8.75217
36 1 1.08947 0.00500154 37.0877 -8.2771
37 1 2.23116 0.00500179 39.7463 -8.71987
38 1 3.10698 0.00500182 42.4437 -8.76939
39 1 2.78837 2.24289 37.5606 -8.78199
40 1 4.03286 0.00500187 45.0428 -8.76874
41 1 4.94871 0.005002 47.6304 -8.76227
42 1 5.86283 0.00500218 50.2152 -8.76072
43 1 6.77664 0.00500241 52.7993 -8.76016
44 1 7.69026 0.00500241 55.3834 -8.75999
45 1 0.381351 0.00500241 57.9674 -8.75999
46 1 3.42638 2.24289 47.1992 -8.75893
47 1 4.34014 2.24289 49.7842 -8.75996
48 1 5.25395 2.24289 52.3686 -8.76007
49 1 6.16757 2.24289 54.9527 -8.75999
50 1 7.08118 2.24289 57.5368 -8.75999
51 1 3.73127 0.00500241 51.9379 -8.76
52 1 4.64488 0.00500241 54.522 -8.75999
53 1 5.55849 0.00500241 57.1061 -8.75999
54 1 4.0358 2.24289 56.6754 -8.75999
55 1 3.42673 0.00500241 58.8288 -8.75999
56 1 4.34034 0.00500241 61.4129 -8.75999
57 1 5.25395 0.00500241 63.997 -8.75999
58 1 6.16757 0.00500241 66.5811 -8.75991
59 1 7.08118 0.00500241 69.1652 -7.62235
60 1 3.73127 2.24289 63.5663 -8.75999
61 1 4.64488 2.24289 66.1504 -8.75999
62 1 5.55849 2.24289 68.7345 -7.93439
63 1 4.94942 2.24289 59.2595 -8.75999
64 1 5.86303 2.24289 61.8436 -8.75999
65 1 6.77664 2.24289 64.4277 -8.75999
66 1 7.69026 2.24289 67.0118 -8.75991
67 1 0.381351 2.24289 69.5958 -7.62218
68 1 6.47211 0.00500241 59.6902 -8.75999
69 1 7.38572 0.00500241 62.2743 -8.75999
70 1 0.0768133 0.00500241 64.8583 -8.75999
71 1 0.990426 0.00500241 67.4424 -8.75991
72 1 1.90404 0.00500241 70.0265 -7.32523
73 1 7.99479 2.24289 60.1209 -8.75999
74 1 0.685889 2.24289 62.7049 -8.75999
75 1 1.5995 2.24289 65.289 -8.75999
76 1 2.51312 2.24289 67.8731 -8.75975
77 1 1.29496 0.00500241 60.5515 -8.75999
78 1 2.20858 0.00500241 63.1356 -8.75999
79 1 3.12219 0.00500241 65.7197 -8.75999
80 1 2.81765 2.24289 60.9822 -8.75999
81 1 4.0358 0.00500241 68.3038 -8.47822
82 1 3.42673 2.24289 70.4572 -6.41377
83 1 0 0.005 5e-05 -6.41377
84 1 2.13176 0.005 1.72278 -7.93439
85 1 4.26353 0.005 3.4455 -8.75991
86 1 6.39529 0.005 5.16823 -8.75999
87 1 3.65445 2.24289 1.29209 -7.62235
88 1 5.78622 2.24289 3.01482 -8.75991
89 1 7.91798 2.24289 4.73755 -8.75999
90 1 0.609075 2.24289 2.15346 -8.47822
91 1 2.74084 2.24289 3.87618 -8.75991
92 1 4.8726 2.24289 5.59891 -8.75999
93 1 7.00437 2.24289 7.32163 -8.75999
94 1 1.21815 0.005 4.30686 -8.75999
95 1 3.34992 0.005 6.02959 -8.75999
96 1 5.48168 0.005 7.75232 -8.75999
97 1 7.61344 0.005 9.47504 -8.75999
98 1 1.82723 2.24289 6.46027 -8.75999
99 1 3.95899 2.24289 8.183 -8.75999
100 1 6.09075 2.24289 9.90572 -8.75999
101 1 0.304538 0.005 6.89095 -8.75999
102 1 2.4363 0.005 8.61368 -8.75999
103 1 4.56807 0.005 10.3364 -8.75999
104 1 6.69983 0.005 12.0591 -8.75999
105 1 0.913613 2.24289 9.04436 -8.75999
106 1 3.04538 2.24289 10.7671 -8.75999
107 1 5.17714 2.24289 12.4898 -8.75999
108 1 7.30891 2.24289 14.2125 -8.75999
109 1 1.52269 0.005 11.1978 -8.75999
110 1 3.65445 0.005 12.9205 -8.75999
111 1 5.78622 0.005 14.6432 -8.75999
112 1 7.91798 0.005 16.3659 -8.75999
113 1 0 2.24289 11.6284 -8.75999
114 1 2.13176 2.24289 13.3512 -8.75999
115 1 4.26353 2.24289 15.0739 -8.75999
116 1 6.39529 2.24289 16.7966 -8.75999
117 1 0.609075 0.005 13.7819 -8.75999
118 1 2.74084 0.005 15.5046 -8.75999
119 1 4.8726 0.005 17.2273 -8.75997
120 1 7.00437 0.005 18.95 -8.75998
121 1 1.21815 2.24289 15.9353 -8.75999
122 1 3.34992 2.24289 17.658 -8.76002
123 1 5.48171 2.24289 19.3807 -8.7599
124 1 7.61341 2.24289 21.1035 -8.76001
125 1 1.82723 0.005 18.0887 -8.76003
126 1 3.95903 0.00500008 19.8113 -8.75995
127 1 6.09078 0.00500021 21.5342 -8.7599
128 1 0.304538 2.24289 18.5194 -8.76002
129 1 2.43629 2.24289 20.242 -8.76014
130 1 4.56817 2.24289 21.9647 -8.75962
131 1 0.913564 0.00500019 20.6728 -8.76007
132 1 3.04546 0.00500025 22.3952 -8.76004
133 1 1.52258 2.24289 22.8261 -8.76064
134 1 5.17714 0.005 0.861413 -7.62218
135 1 7.30891 0.005 2.58414 -8.75975
136 1 6.69983 2.24289 0.430731 -7.32523
137 1 8.22236 0.0050003 23.257 -8.75995
138 1 2.13188 0.0050003 24.9786 -8.76088
139 1 4.26385 0.00500033 26.7026 -8.75785
140 1 6.39438 0.00500036 28.4262 -8.75419
141 1 3.65478 2.24289 24.5483 -8.7587
142 1 5.78618 2.24289 26.2727 -8.76154
143 1 7.91597 2.24289 27.9974 -8.76672
144 1 0.608548 2.24289 25.4107 -8.76194
145 1 2.74195 2.24289 27.1302 -8.75417
146 1 4.87156 2.24289 28.8593 -8.76807
147 1 6.99031 2.24289 30.5911 -8.77116
148 1 1.21854 0.00500033 27.5614 -8.76557
149 1 3.35278 0.00500045 29.287 -8.73652
150 1 5.48227 0.00500057 31.009 -8.67838
151 1 7.56665 0.00500065 32.7324 -8.77677
152 1 1.83377 2.24289 29.706 -8.7446
153 1 3.96725 2.24289 31.4638 -8.80356
154 1 6.08886 2.24289 33.2573 -8.52102
155 1 0.302 0.00500048 30.1426 -8.80289
156 1 2.45296 0.00500062 31.8607 -8.65189
157 1 4.62591 0.00500078 33.5706 -8.52563
158 1 0.914657 2.24289 32.2455 -8.79998
159 1 3.03738 2.24289 34.1033 -8.74232
160 1 1.43721 0.00500073 34.3069 -8.00803
161 1 0.0682914 2.24289 34.7774 -7.99951
162 1 5.17728 0.00500029 24.1184 -8.75958
163 1 7.30864 0.0050003 25.8417 -8.75867
164 1 6.69979 2.24289 23.6879 -8.76004
Egb = 2.86852169460812
