ITEM: TIMESTEP
0
ITEM: NUMBER OF ATOMS
652
ITEM: BOX BOUNDS pp pp ss
0.0000000000000000e+00 1.6445037798850663e+01
0.0000000000000000e+00 8.9515447573258555e+00
-6.9702082233662867e-03 7.0064434879361940e+01
ITEM: ATOMS id type x y z c_eng
1 1 1.6072 0.00501899 37.8702 -8.58345
2 1 2.44239 0.00502434 40.3771 -8.6479
3 1 3.33977 0.00502667 42.9627 -8.80996
4 1 4.26577 0.00502843 45.5178 -8.75602
5 1 5.17784 0.00502985 48.0951 -8.75773
6 1 6.09081 0.00503112 50.6774 -8.75917
7 1 7.00441 0.00503158 53.2608 -8.75981
8 1 7.91802 0.00503158 55.8449 -8.75999
9 1 0.90535 2.27796 39.7884 -8.76268
10 1 1.81341 2.25712 42.4642 -8.69914
11 1 2.73675 2.24692 45.073 -8.77166
12 1 3.65377 2.24351 47.6611 -8.76379
13 1 4.56788 2.24306 50.246 -8.76091
14 1 5.48172 2.24292 52.8302 -8.76018
15 1 6.39534 2.24292 55.4142 -8.75999
16 1 7.30895 2.24292 57.9983 -8.75999
17 1 1.88841 2.2429 36.1054 -7.83413
18 1 3.23105 2.38818 38.2808 -8.47144
19 1 3.9432 2.20677 40.847 -8.42495
20 1 4.87423 2.25192 43.3718 -8.72297
21 1 5.78776 2.24459 45.9422 -8.7516
22 1 6.70008 2.2434 48.524 -8.75836
23 1 7.61349 2.24292 51.1074 -8.75968
24 1 8.5271 2.24292 53.6915 -8.75999
25 1 3.55451 0.00501659 36.1315 -8.43483
26 1 4.52392 0.00502268 38.6397 -8.39213
27 1 5.47456 0.00502497 41.2584 -8.78918
28 1 6.40629 0.0050271 43.7965 -8.76378
29 1 7.31185 0.00502877 46.3732 -8.76062
30 1 8.22313 0.00503023 48.955 -8.75986
31 1 5.08891 2.2429 36.1054 -8.92146
32 1 6.04417 2.14552 39.1099 -8.4424
33 1 7.01175 2.24511 41.649 -8.82776
34 1 7.92258 2.24104 44.2173 -8.74991
35 1 6.5338 0.00501874 36.9077 -8.60136
36 1 7.57865 0.00502544 39.5406 -8.16372
37 1 8.55849 0.00502556 42.0311 -8.71609
38 1 7.74081 2.89018 37.2498 -8.39799
39 1 1.21334 0.00502793 44.6476 -8.71683
40 1 2.13095 0.00502951 47.2299 -8.75342
41 1 3.04506 0.00503073 49.8149 -8.7592
42 1 3.95903 0.00503158 52.3995 -8.76
43 1 4.87265 0.00503158 54.9836 -8.75999
44 1 5.78626 0.00503158 57.5677 -8.75999
45 1 0.60951 2.24313 46.8006 -8.75792
46 1 1.52279 2.24278 49.3845 -8.75929
47 1 2.43634 2.24292 51.9688 -8.75982
48 1 3.34996 2.24292 54.5529 -8.75999
49 1 4.26357 2.24292 57.137 -8.75999
50 1 0.913656 0.00503158 51.5381 -8.76029
51 1 1.82727 0.00503158 54.1222 -8.75999
52 1 2.74088 0.00503158 56.7063 -8.75999
53 1 1.21819 2.24292 56.2756 -8.75999
54 1 0.609118 0.00503158 58.429 -8.75999
55 1 1.52273 0.00503158 61.0131 -8.75999
56 1 2.43634 0.00503158 63.5972 -8.75999
57 1 3.34996 0.00503158 66.1813 -8.75991
58 1 4.26357 0.00503158 68.7654 -7.62235
59 1 0.913656 2.24292 63.1665 -8.75999
60 1 1.82727 2.24292 65.7506 -8.75999
61 1 2.74088 2.24292 68.3347 -7.93439
62 1 2.13181 2.24292 58.8597 -8.75999
63 1 3.04542 2.24292 61.4438 -8.75999
64 1 3.95903 2.24292 64.0279 -8.75999
65 1 4.87265 2.24292 66.612 -8.75991
66 1 5.78626 2.24292 69.1961 -7.62218
67 1 3.6545 0.00503158 59.2904 -8.75999
68 1 4.56811 0.00503158 61.8745 -8.75999
69 1 5.48172 0.00503158 64.4586 -8.75999
70 1 6.39534 0.00503158 67.0426 -8.75991
71 1 7.30895 0.00503158 69.6267 -7.32523
72 1 5.17718 2.24292 59.7211 -8.75999
73 1 6.0908 2.24292 62.3051 -8.75999
74 1 7.00441 2.24292 64.8892 -8.75999
75 1 7.91802 2.24292 67.4733 -8.75975
76 1 6.69987 0.00503158 60.1517 -8.75999
77 1 7.61349 0.00503158 62.7358 -8.75999
78 1 8.5271 0.00503158 65.3199 -8.75999
79 1 8.22256 2.24292 60.5824 -8.75999
80 1 1.21819 0.00503158 67.904 -8.47822
81 1 0.609118 2.24292 70.0574 -6.41377
82 1 1.01479 4.48079 37.4253 -8.75557
83 1 2.51098 4.4808 40.1562 -8.68494
84 1 3.34391 4.4808 42.8973 -8.82371
85 1 4.26097 4.4808 45.5055 -8.78254
86 1 5.17664 4.4808 48.0923 -8.76329
87 1 6.09076 4.4808 50.6767 -8.76078
88 1 7.00441 4.4808 53.2608 -8.76
89 1 7.91802 4.4808 55.8449 -8.75999
90 1 0.905351 6.68363 39.7884 -8.76267
91 1 1.81341 6.70448 42.4642 -8.69914
92 1 2.73675 6.71469 45.073 -8.77166
93 1 3.65377 6.7181 47.6611 -8.76379
94 1 4.56788 6.71855 50.246 -8.76091
95 1 5.48172 6.71869 52.8302 -8.76018
96 1 6.39534 6.71869 55.4142 -8.75999
97 1 7.30895 6.71869 57.9983 -8.75999
98 1 1.88841 6.71867 36.1054 -7.83413
99 1 3.23105 6.57341 38.2808 -8.47143
100 1 3.9432 6.75482 40.847 -8.42495
101 1 4.87423 6.70968 43.3718 -8.72297
102 1 5.78776 6.71701 45.9422 -8.7516
103 1 6.70008 6.7182 48.524 -8.75836
104 1 7.61349 6.71869 51.1074 -8.75968
105 1 8.5271 6.71869 53.6915 -8.75999
106 1 3.55451 4.48079 36.0793 -8.43483
107 1 5.22013 4.48079 38.1354 -8.50858
108 1 5.44975 4.4808 41.1327 -8.77027
109 1 6.38997 4.4808 43.7711 -8.77818
110 1 7.30704 4.4808 46.3663 -8.75965
111 1 8.22227 4.4808 48.953 -8.76066
112 1 5.08891 6.71868 36.1054 -8.92145
113 1 6.04417 6.81607 39.1099 -8.44241
114 1 7.01175 6.71648 41.649 -8.82776
115 1 7.92258 6.72056 44.2173 -8.74991
116 1 6.53379 4.48079 35.3031 -8.60136
117 1 7.64281 4.4808 39.5901 -8.6082
118 1 8.53612 4.4808 42.0728 -8.57602
119 1 7.74081 6.0714 37.2498 -8.39798
120 1 1.22004 4.4808 44.6382 -8.76306
121 1 2.13133 4.4808 47.2295 -8.76325
122 1 3.04526 4.4808 49.815 -8.76071
123 1 3.95903 4.4808 52.3995 -8.76021
124 1 4.87265 4.4808 54.9836 -8.75999
125 1 5.78626 4.4808 57.5677 -8.75999
126 1 0.60951 6.71847 46.8006 -8.75792
127 1 1.52279 6.71882 49.3845 -8.75929
128 1 2.43634 6.71869 51.9688 -8.75982
129 1 3.34996 6.71869 54.5529 -8.75999
130 1 4.26357 6.71869 57.137 -8.75999
131 1 0.913656 4.4808 51.5381 -8.75957
132 1 1.82727 4.4808 54.1222 -8.75999
133 1 2.74088 4.4808 56.7063 -8.75999
134 1 1.21819 6.71869 56.2756 -8.75999
135 1 0.609118 4.4808 58.429 -8.75999
136 1 1.52273 4.4808 61.0131 -8.75999
137 1 2.43634 4.4808 63.5972 -8.75999
138 1 3.34996 4.4808 66.1813 -8.75991
139 1 4.26357 4.4808 68.7654 -7.62235
140 1 0.913656 6.71869 63.1665 -8.75999
141 1 1.82727 6.71869 65.7506 -8.75999
142 1 2.74088 6.71869 68.3347 -7.93439
143 1 2.13181 6.71869 58.8597 -8.75999
144 1 3.04542 6.71869 61.4438 -8.75999
145 1 3.95903 6.71869 64.0279 -8.75999
146 1 4.87265 6.71869 66.612 -8.75991
147 1 5.78626 6.71869 69.1961 -7.62218
148 1 3.6545 4.4808 59.2904 -8.75999
149 1 4.56811 4.4808 61.8745 -8.75999
150 1 5.48172 4.4808 64.4586 -8.75999
151 1 6.39534 4.4808 67.0426 -8.75991
152 1 7.30895 4.4808 69.6267 -7.32523
153 1 5.17718 6.71869 59.7211 -8.75999
154 1 6.0908 6.71869 62.3051 -8.75999
155 1 7.00441 6.71869 64.8892 -8.75999
156 1 7.91802 6.71869 67.4733 -8.75975
157 1 6.69987 4.4808 60.1517 -8.75999
158 1 7.61349 4.4808 62.7358 -8.75999
159 1 8.5271 4.4808 65.3199 -8.75999
160 1 8.22256 6.71869 60.5824 -8.75999
161 1 1.21819 4.4808 67.904 -8.47822
162 1 0.609118 6.71869 70.0574 -6.41377
163 1 9.23731 0.00501871 37.4253 -8.75557
164 1 10.7335 0.00502342 40.1562 -8.68494
165 1 11.5664 0.00502633 42.8973 -8.82371
166 1 12.4835 0.00502818 45.5055 -8.78254
167 1 13.3992 0.00502977 48.0923 -8.76329
168 1 14.3133 0.00503105 50.6767 -8.76078
169 1 15.2269 0.00503158 53.2608 -8.76
170 1 16.1405 0.00503158 55.8449 -8.75999
171 1 9.12787 2.20786 39.7884 -8.76267
172 1 10.0359 2.2287 42.4642 -8.69914
173 1 10.9593 2.23891 45.073 -8.77166
174 1 11.8763 2.24232 47.6611 -8.76379
175 1 12.7904 2.24277 50.246 -8.76091
176 1 13.7042 2.24292 52.8302 -8.76018
177 1 14.6179 2.24292 55.4142 -8.75999
178 1 15.5315 2.24292 57.9983 -8.75999
179 1 10.1109 2.2429 36.1054 -7.83413
180 1 11.4536 2.09764 38.2808 -8.47143
181 1 12.1657 2.27905 40.847 -8.42495
182 1 13.0967 2.23391 43.3718 -8.72297
183 1 14.0103 2.24124 45.9422 -8.7516
184 1 14.9226 2.24243 48.524 -8.75836
185 1 15.836 2.24292 51.1074 -8.75968
186 1 0.30458 2.24292 53.6915 -8.75999
187 1 11.777 0.00501658 36.0793 -8.43483
188 1 13.4427 0.00501945 38.1354 -8.50858
189 1 13.6723 0.00502481 41.1327 -8.77027
190 1 14.6125 0.00502711 43.7711 -8.77818
191 1 15.5296 0.00502892 46.3663 -8.75965
192 1 16.4448 0.00503039 48.953 -8.76066
193 1 13.3114 2.2429 36.1054 -8.92145
194 1 14.2667 2.3403 39.1099 -8.44241
195 1 15.2343 2.24071 41.649 -8.82776
196 1 16.1451 2.24479 44.2173 -8.74991
197 1 14.7563 0.0050143 35.3031 -8.60136
198 1 15.8653 0.00502248 39.5901 -8.6082
199 1 0.313604 0.00502594 42.0728 -8.57602
200 1 15.9633 1.59562 37.2498 -8.39798
201 1 9.44256 0.00502759 44.6382 -8.76306
202 1 10.3538 0.00502919 47.2295 -8.76325
203 1 11.2678 0.00503058 49.815 -8.76071
204 1 12.1816 0.00503158 52.3995 -8.76021
205 1 13.0952 0.00503158 54.9836 -8.75999
206 1 14.0088 0.00503158 57.5677 -8.75999
207 1 8.83203 2.2427 46.8006 -8.75792
208 1 9.74531 2.24305 49.3845 -8.75929
209 1 10.6589 2.24292 51.9688 -8.75982
210 1 11.5725 2.24292 54.5529 -8.75999
211 1 12.4861 2.24292 57.137 -8.75999
212 1 9.13617 0.00503158 51.5381 -8.75957
213 1 10.0498 0.00503158 54.1222 -8.75999
214 1 10.9634 0.00503158 56.7063 -8.75999
215 1 9.44071 2.24292 56.2756 -8.75999
216 1 8.83164 0.00503158 58.429 -8.75999
217 1 9.74525 0.00503158 61.0131 -8.75999
218 1 10.6589 0.00503158 63.5972 -8.75999
219 1 11.5725 0.00503158 66.1813 -8.75991
220 1 12.4861 0.00503158 68.7654 -7.62235
221 1 9.13617 2.24292 63.1665 -8.75999
222 1 10.0498 2.24292 65.7506 -8.75999
223 1 10.9634 2.24292 68.3347 -7.93439
224 1 10.3543 2.24292 58.8597 -8.75999
225 1 11.2679 2.24292 61.4438 -8.75999
226 1 12.1816 2.24292 64.0279 -8.75999
227 1 13.0952 2.24292 66.612 -8.75991
228 1 14.0088 2.24292 69.1961 -7.62218
229 1 11.877 0.00503158 59.2904 -8.75999
230 1 12.7906 0.00503158 61.8745 -8.75999
231 1 13.7042 0.00503158 64.4586 -8.75999
232 1 14.6179 0.00503158 67.0426 -8.75991
233 1 15.5315 0.00503158 69.6267 -7.32523
234 1 13.3997 2.24292 59.7211 -8.75999
235 1 14.3133 2.24292 62.3051 -8.75999
236 1 15.2269 2.24292 64.8892 -8.75999
237 1 16.1405 2.24292 67.4733 -8.75975
238 1 14.9224 0.00503158 60.1517 -8.75999
239 1 15.836 0.00503158 62.7358 -8.75999
240 1 0.30458 0.00503158 65.3199 -8.75999
241 1 4.25871e-05 2.24292 60.5824 -8.75999
242 1 9.44071 0.00503158 67.904 -8.47822
243 1 8.83164 2.24292 70.0574 -6.41377
244 1 9.82972 4.48079 37.8702 -8.58345
245 1 10.6649 4.4808 40.3771 -8.6479
246 1 11.5623 4.4808 42.9627 -8.80996
247 1 12.4883 4.4808 45.5178 -8.75602
248 1 13.4004 4.4808 48.0951 -8.75773
249 1 14.3133 4.4808 50.6774 -8.75917
250 1 15.2269 4.4808 53.2608 -8.75981
251 1 16.1405 4.4808 55.8449 -8.75999
252 1 9.12787 6.75374 39.7884 -8.76268
253 1 10.0359 6.73289 42.4642 -8.69914
254 1 10.9593 6.72269 45.073 -8.77166
255 1 11.8763 6.71928 47.6611 -8.76379
256 1 12.7904 6.71883 50.246 -8.76091
257 1 13.7042 6.71869 52.8302 -8.76018
258 1 14.6179 6.71869 55.4142 -8.75999
259 1 15.5315 6.71869 57.9983 -8.75999
260 1 10.1109 6.71868 36.1054 -7.83413
261 1 11.4536 6.86395 38.2808 -8.47143
262 1 12.1657 6.68255 40.847 -8.42495
263 1 13.0967 6.72769 43.3718 -8.72297
264 1 14.0103 6.72036 45.9422 -8.7516
265 1 14.9226 6.71917 48.524 -8.75836
266 1 15.836 6.71869 51.1074 -8.75968
267 1 0.30458 6.71869 53.6915 -8.75999
268 1 11.777 4.48079 36.1315 -8.43483
269 1 12.7464 4.48079 38.6397 -8.39213
270 1 13.6971 4.4808 41.2584 -8.78918
271 1 14.6288 4.4808 43.7965 -8.76378
272 1 15.5344 4.4808 46.3732 -8.76062
273 1 0.000606463 4.4808 48.955 -8.75986
274 1 13.3114 6.71867 36.1054 -8.92146
275 1 14.2667 6.62129 39.1099 -8.4424
276 1 15.2343 6.72088 41.649 -8.82776
277 1 16.1451 6.71681 44.2173 -8.74991
278 1 14.7563 4.48079 36.9077 -8.60136
279 1 15.8012 4.4808 39.5406 -8.16372
280 1 0.335968 4.4808 42.0311 -8.71609
281 1 15.9633 7.36595 37.2498 -8.39799
282 1 9.43586 4.4808 44.6476 -8.71683
283 1 10.3535 4.4808 47.2299 -8.75342
284 1 11.2676 4.4808 49.8149 -8.7592
285 1 12.1816 4.4808 52.3995 -8.76
286 1 13.0952 4.4808 54.9836 -8.75999
287 1 14.0088 4.4808 57.5677 -8.75999
288 1 8.83203 6.7189 46.8006 -8.75792
289 1 9.74531 6.71856 49.3845 -8.75929
290 1 10.6589 6.71869 51.9688 -8.75982
291 1 11.5725 6.71869 54.5529 -8.75999
292 1 12.4861 6.71869 57.137 -8.75999
293 1 9.13617 4.4808 51.5381 -8.76029
294 1 10.0498 4.4808 54.1222 -8.75999
295 1 10.9634 4.4808 56.7063 -8.75999
296 1 9.44071 6.71869 56.2756 -8.75999
297 1 8.83164 4.4808 58.429 -8.75999
298 1 9.74525 4.4808 61.0131 -8.75999
299 1 10.6589 4.4808 63.5972 -8.75999
300 1 11.5725 4.4808 66.1813 -8.75991
301 1 12.4861 4.4808 68.7654 -7.62235
302 1 9.13617 6.71869 63.1665 -8.75999
303 1 10.0498 6.71869 65.7506 -8.75999
304 1 10.9634 6.71869 68.3347 -7.93439
305 1 10.3543 6.71869 58.8597 -8.75999
306 1 11.2679 6.71869 61.4438 -8.75999
307 1 12.1816 6.71869 64.0279 -8.75999
308 1 13.0952 6.71869 66.612 -8.75991
309 1 14.0088 6.71869 69.1961 -7.62218
310 1 11.877 4.4808 59.2904 -8.75999
311 1 12.7906 4.4808 61.8745 -8.75999
312 1 13.7042 4.4808 64.4586 -8.75999
313 1 14.6179 4.4808 67.0426 -8.75991
314 1 15.5315 4.4808 69.6267 -7.32523
315 1 13.3997 6.71869 59.7211 -8.75999
316 1 14.3133 6.71869 62.3051 -8.75999
317 1 15.2269 6.71869 64.8892 -8.75999
318 1 16.1405 6.71869 67.4733 -8.75975
319 1 14.9224 4.4808 60.1517 -8.75999
320 1 15.836 4.4808 62.7358 -8.75999
321 1 0.30458 4.4808 65.3199 -8.75999
322 1 4.25871e-05 6.71869 60.5824 -8.75999
323 1 9.44071 4.4808 67.904 -8.47822
324 1 8.83164 6.71869 70.0574 -6.41377
325 1 0 0.005 5e-05 -6.41377
326 1 2.13176 0.005 1.72278 -7.93439
327 1 4.26353 0.005 3.4455 -8.75991
328 1 6.39529 0.005 5.16823 -8.75999
329 1 3.65445 2.24289 1.29209 -7.62235
330 1 5.78622 2.24289 3.01482 -8.75991
331 1 7.91798 2.24289 4.73755 -8.75999
332 1 0.609075 2.24289 2.15346 -8.47822
333 1 2.74084 2.24289 3.87618 -8.75991
334 1 4.8726 2.24289 5.59891 -8.75999
335 1 7.00437 2.24289 7.32163 -8.75999
336 1 1.21815 0.005 4.30686 -8.75999
337 1 3.34992 0.005 6.02959 -8.75999
338 1 5.48168 0.005 7.75232 -8.75999
339 1 7.61344 0.005 9.47504 -8.75999
340 1 1.82723 2.24289 6.46027 -8.75999
341 1 3.95899 2.24289 8.183 -8.75999
342 1 6.09075 2.24289 9.90572 -8.75999
343 1 0.304538 0.005 6.89095 -8.75999
344 1 2.4363 0.005 8.61368 -8.75999
345 1 4.56807 0.005 10.3364 -8.75999
346 1 6.69983 0.005 12.0591 -8.75999
347 1 0.913613 2.24289 9.04436 -8.75999
348 1 3.04538 2.24289 10.7671 -8.75999
349 1 5.17714 2.24289 12.4898 -8.75999
350 1 7.30891 2.24289 14.2125 -8.75999
351 1 1.52269 0.005 11.1978 -8.75999
352 1 3.65445 0.005 12.9205 -8.75999
353 1 5.78622 0.005 14.6432 -8.75999
354 1 7.91798 0.005 16.3659 -8.75999
355 1 0 2.24289 11.6284 -8.75999
356 1 2.13176 2.24289 13.3512 -8.75999
357 1 4.26353 2.24289 15.0739 -8.75999
358 1 6.39529 2.24289 16.7966 -8.75999
359 1 0.609075 0.005 13.7819 -8.75999
360 1 2.74084 0.005 15.5046 -8.75999
361 1 4.8726 0.005 17.2273 -8.76006
362 1 7.00437 0.005 18.95 -8.76017
363 1 1.21815 2.24289 15.9353 -8.75999
364 1 3.34992 2.24289 17.658 -8.75997
365 1 5.48162 2.24285 19.3807 -8.7602
366 1 7.61352 2.24272 21.1033 -8.75973
367 1 1.82723 0.005 18.0887 -8.75984
368 1 3.95894 0.00500096 19.8115 -8.76029
369 1 6.09069 0.00500201 21.5342 -8.76081
370 1 0.304538 2.24289 18.5194 -8.75991
371 1 2.43628 2.24293 20.2422 -8.7598
372 1 4.56788 2.24275 21.9649 -8.7609
373 1 0.91379 0.0050013 20.6725 -8.75964
374 1 3.04525 0.00500238 22.3959 -8.76075
375 1 1.52277 2.24299 22.8264 -8.7593
376 1 5.17714 0.005 0.861413 -7.62218
377 1 7.30891 0.005 2.58414 -8.75975
378 1 6.69983 2.24289 0.430731 -7.32523
379 1 0.000604405 0.00500283 23.2558 -8.75977
380 1 2.13131 0.0050039 24.9814 -8.7633
381 1 4.26096 0.00500504 26.7054 -8.78255
382 1 6.38996 0.00500644 28.4397 -8.77817
383 1 3.65378 2.24229 24.5498 -8.76381
384 1 5.78776 2.24122 26.2687 -8.75161
385 1 7.92258 2.24477 27.9936 -8.7499
386 1 0.609498 2.24267 25.4103 -8.7579
387 1 2.73674 2.23889 27.1379 -8.77166
388 1 4.87423 2.23389 28.8391 -8.72298
389 1 7.01175 2.24069 30.5618 -8.82775
390 1 1.22004 0.00500568 27.5727 -8.76307
391 1 3.3439 0.00500695 29.3136 -8.82371
392 1 5.44975 0.00500849 31.0782 -8.77027
393 1 7.64281 0.00501128 32.6208 -8.6082
394 1 1.8134 2.22868 29.7467 -8.69914
395 1 3.9432 2.27903 31.3639 -8.42495
396 1 6.04417 2.34029 33.101 -8.4424
397 1 0.335964 0.00500767 30.1798 -8.71609
398 1 2.51098 0.0050097 32.0547 -8.68494
399 1 5.22013 0.0050138 34.0755 -8.50858
400 1 0.905348 2.20784 32.4225 -8.76268
401 1 3.23105 2.09763 33.9301 -8.47143
402 1 1.01479 0.00501433 34.7856 -8.75557
403 1 15.9633 2.89018 34.9611 -8.39798
404 1 5.17663 0.00500354 24.1186 -8.76331
405 1 7.30702 0.00500484 25.8446 -8.7596
406 1 6.70009 2.24241 23.6868 -8.7584
407 1 0 4.48077 5e-05 -6.41377
408 1 2.13176 4.48077 1.72278 -7.93439
409 1 4.26353 4.48077 3.4455 -8.75991
410 1 6.39529 4.48077 5.16823 -8.75999
411 1 3.65445 6.71866 1.29209 -7.62235
412 1 5.78622 6.71866 3.01482 -8.75991
413 1 7.91798 6.71866 4.73755 -8.75999
414 1 0.609075 6.71866 2.15346 -8.47822
415 1 2.74084 6.71866 3.87618 -8.75991
416 1 4.8726 6.71866 5.59891 -8.75999
417 1 7.00437 6.71866 7.32163 -8.75999
418 1 1.21815 4.48077 4.30686 -8.75999
419 1 3.34992 4.48077 6.02959 -8.75999
420 1 5.48168 4.48077 7.75232 -8.75999
421 1 7.61344 4.48077 9.47504 -8.75999
422 1 1.82723 6.71866 6.46027 -8.75999
423 1 3.95899 6.71866 8.183 -8.75999
424 1 6.09075 6.71866 9.90572 -8.75999
425 1 0.304538 4.48077 6.89095 -8.75999
426 1 2.4363 4.48077 8.61368 -8.75999
427 1 4.56807 4.48077 10.3364 -8.75999
428 1 6.69983 4.48077 12.0591 -8.75999
429 1 0.913613 6.71866 9.04436 -8.75999
430 1 3.04538 6.71866 10.7671 -8.75999
431 1 5.17714 6.71866 12.4898 -8.75999
432 1 7.30891 6.71866 14.2125 -8.75999
433 1 1.52269 4.48077 11.1978 -8.75999
434 1 3.65445 4.48077 12.9205 -8.75999
435 1 5.78622 4.48077 14.6432 -8.75999
436 1 7.91798 4.48077 16.3659 -8.75999
437 1 0 6.71866 11.6284 -8.75999
438 1 2.13176 6.71866 13.3512 -8.75999
439 1 4.26353 6.71866 15.0739 -8.75999
440 1 6.39529 6.71866 16.7966 -8.75999
441 1 0.609075 4.48077 13.7819 -8.75999
442 1 2.74084 4.48077 15.5046 -8.75999
443 1 4.8726 4.48077 17.2273 -8.76005
444 1 7.00437 4.48077 18.95 -8.75972
445 1 1.21815 6.71866 15.9353 -8.75999
446 1 3.34992 6.71866 17.658 -8.75997
447 1 5.48162 6.7187 19.3807 -8.7602
448 1 7.61352 6.71882 21.1033 -8.75973
449 1 1.82723 4.48077 18.0887 -8.76006
450 1 3.95885 4.48077 19.8115 -8.75997
451 1 6.09086 4.48077 21.5335 -8.75916
452 1 0.304538 6.71866 18.5194 -8.75991
453 1 2.43628 6.71861 20.2422 -8.7598
454 1 4.56788 6.71879 21.9649 -8.7609
455 1 0.913549 4.48077 20.6731 -8.7602
456 1 3.04507 4.48077 22.3961 -8.75915
457 1 1.52277 6.71856 22.8264 -8.7593
458 1 5.17714 4.48077 0.861413 -7.62218
459 1 7.30891 4.48077 2.58414 -8.75975
460 1 6.69983 6.71866 0.430731 -7.32523
461 1 16.4448 4.48078 23.258 -8.7606
462 1 2.13094 4.48078 24.981 -8.75338
463 1 4.26577 4.48078 26.6931 -8.75602
464 1 6.40629 4.48078 28.4144 -8.76379
465 1 3.65378 6.71926 24.5498 -8.76381
466 1 5.78776 6.72033 26.2687 -8.75161
467 1 7.92258 6.71679 27.9936 -8.7499
468 1 0.609498 6.71889 25.4103 -8.7579
469 1 2.73674 6.72267 27.1379 -8.77166
470 1 4.87423 6.72767 28.8391 -8.72298
471 1 7.01175 6.72087 30.5618 -8.82775
472 1 1.21333 4.48078 27.5633 -8.71681
473 1 3.33977 4.48078 29.2482 -8.80996
474 1 5.47455 4.48078 30.9525 -8.78919
475 1 7.57864 4.48078 32.6702 -8.16372
476 1 1.8134 6.73287 29.7466 -8.69914
477 1 3.9432 6.68253 31.3639 -8.42495
478 1 6.04417 6.62128 33.101 -8.44241
479 1 0.3136 4.48078 30.1381 -8.57602
480 1 2.44239 4.48078 31.8337 -8.6479
481 1 4.52392 4.48078 33.5711 -8.39213
482 1 0.905349 6.75372 32.4225 -8.76267
483 1 3.23105 6.86394 33.9301 -8.47143
484 1 1.6072 4.48079 34.3407 -8.58345
485 1 15.9633 6.0714 34.9611 -8.39799
486 1 5.17786 4.48078 24.1157 -8.75774
487 1 7.31186 4.48078 25.8377 -8.76063
488 1 6.70009 6.71914 23.6868 -8.7584
489 1 8.22252 0.005 5e-05 -6.41377
490 1 10.3543 0.005 1.72278 -7.93439
491 1 12.486 0.005 3.4455 -8.75991
492 1 14.6178 0.005 5.16823 -8.75999
493 1 11.877 2.24289 1.29209 -7.62235
494 1 14.0087 2.24289 3.01482 -8.75991
495 1 16.1405 2.24289 4.73755 -8.75999
496 1 8.83159 2.24289 2.15346 -8.47822
497 1 10.9634 2.24289 3.87618 -8.75991
498 1 13.0951 2.24289 5.59891 -8.75999
499 1 15.2269 2.24289 7.32163 -8.75999
500 1 9.44067 0.005 4.30686 -8.75999
501 1 11.5724 0.005 6.02959 -8.75999
502 1 13.7042 0.005 7.75232 -8.75999
503 1 15.836 0.005 9.47504 -8.75999
504 1 10.0497 2.24289 6.46027 -8.75999
505 1 12.1815 2.24289 8.183 -8.75999
506 1 14.3133 2.24289 9.90572 -8.75999
507 1 8.52706 0.005 6.89095 -8.75999
508 1 10.6588 0.005 8.61368 -8.75999
509 1 12.7906 0.005 10.3364 -8.75999
510 1 14.9223 0.005 12.0591 -8.75999
511 1 9.13613 2.24289 9.04436 -8.75999
512 1 11.2679 2.24289 10.7671 -8.75999
513 1 13.3997 2.24289 12.4898 -8.75999
514 1 15.5314 2.24289 14.2125 -8.75999
515 1 9.74521 0.005 11.1978 -8.75999
516 1 11.877 0.005 12.9205 -8.75999
517 1 14.0087 0.005 14.6432 -8.75999
518 1 16.1405 0.005 16.3659 -8.75999
519 1 8.22252 2.24289 11.6284 -8.75999
520 1 10.3543 2.24289 13.3512 -8.75999
521 1 12.486 2.24289 15.0739 -8.75999
522 1 14.6178 2.24289 16.7966 -8.75999
523 1 8.83159 0.005 13.7819 -8.75999
524 1 10.9634 0.005 15.5046 -8.75999
525 1 13.0951 0.005 17.2273 -8.76005
526 1 15.2269 0.005 18.95 -8.75972
527 1 9.44067 2.24289 15.9353 -8.75999
528 1 11.5724 2.24289 17.658 -8.75997
529 1 13.7041 2.24292 19.3807 -8.7602
530 1 15.836 2.24305 21.1033 -8.75973
531 1 10.0497 0.005 18.0887 -8.76006
532 1 12.1814 0.00500093 19.8115 -8.75997
533 1 14.3134 0.00500176 21.5335 -8.75916
534 1 8.52706 2.24289 18.5194 -8.75991
535 1 10.6588 2.24284 20.2422 -8.7598
536 1 12.7904 2.24302 21.9649 -8.7609
537 1 9.13607 0.0050015 20.6731 -8.7602
538 1 11.2676 0.00500263 22.3961 -8.75915
539 1 9.74529 2.24279 22.8264 -8.7593
540 1 13.3997 0.005 0.861413 -7.62218
541 1 15.5314 0.005 2.58414 -8.75975
542 1 14.9223 2.24289 0.430731 -7.32523
543 1 8.22223 0.00500316 23.258 -8.7606
544 1 10.3535 0.00500436 24.981 -8.75338
545 1 12.4883 0.00500546 26.6931 -8.75602
546 1 14.6288 0.00500647 28.4144 -8.76379
547 1 11.8763 2.24349 24.5498 -8.76381
548 1 14.0103 2.24456 26.2687 -8.75161
549 1 16.1451 2.24102 27.9936 -8.7499
550 1 8.83202 2.24312 25.4103 -8.7579
551 1 10.9593 2.24689 27.1379 -8.77166
552 1 13.0967 2.2519 28.8391 -8.72298
553 1 15.2343 2.24509 30.5618 -8.82775
554 1 9.43585 0.00500603 27.5633 -8.71681
555 1 11.5623 0.0050072 29.2482 -8.80996
556 1 13.6971 0.0050087 30.9525 -8.78919
557 1 15.8012 0.00500839 32.6702 -8.16372
558 1 10.0359 2.2571 29.7467 -8.69914
559 1 12.1657 2.20676 31.3639 -8.42495
560 1 14.2667 2.14551 33.101 -8.4424
561 1 8.53612 0.00500792 30.1381 -8.57602
562 1 10.6649 0.00500945 31.8337 -8.6479
563 1 12.7464 0.00501108 33.5711 -8.39213
564 1 9.12787 2.27795 32.4225 -8.76267
565 1 11.4536 2.38817 33.9301 -8.47143
566 1 9.82972 0.0050146 34.3407 -8.58345
567 1 7.74081 1.59563 34.9611 -8.39799
568 1 13.4004 0.00500353 24.1157 -8.75774
569 1 15.5344 0.00500463 25.8377 -8.76063
570 1 14.9226 2.24336 23.6868 -8.7584
571 1 8.22252 4.48077 5e-05 -6.41377
572 1 10.3543 4.48077 1.72278 -7.93439
573 1 12.486 4.48077 3.4455 -8.75991
574 1 14.6178 4.48077 5.16823 -8.75999
575 1 11.877 6.71866 1.29209 -7.62235
576 1 14.0087 6.71866 3.01482 -8.75991
577 1 16.1405 6.71866 4.73755 -8.75999
578 1 8.83159 6.71866 2.15346 -8.47822
579 1 10.9634 6.71866 3.87618 -8.75991
580 1 13.0951 6.71866 5.59891 -8.75999
581 1 15.2269 6.71866 7.32163 -8.75999
582 1 9.44067 4.48077 4.30686 -8.75999
583 1 11.5724 4.48077 6.02959 -8.75999
584 1 13.7042 4.48077 7.75232 -8.75999
585 1 15.836 4.48077 9.47504 -8.75999
586 1 10.0497 6.71866 6.46027 -8.75999
587 1 12.1815 6.71866 8.183 -8.75999
588 1 14.3133 6.71866 9.90572 -8.75999
589 1 8.52706 4.48077 6.89095 -8.75999
590 1 10.6588 4.48077 8.61368 -8.75999
591 1 12.7906 4.48077 10.3364 -8.75999
592 1 14.9223 4.48077 12.0591 -8.75999
593 1 9.13613 6.71866 9.04436 -8.75999
594 1 11.2679 6.71866 10.7671 -8.75999
595 1 13.3997 6.71866 12.4898 -8.75999
596 1 15.5314 6.71866 14.2125 -8.75999
597 1 9.74521 4.48077 11.1978 -8.75999
598 1 11.877 4.48077 12.9205 -8.75999
599 1 14.0087 4.48077 14.6432 -8.75999
600 1 16.1405 4.48077 16.3659 -8.75999
601 1 8.22252 6.71866 11.6284 -8.75999
602 1 10.3543 6.71866 13.3512 -8.75999
603 1 12.486 6.71866 15.0739 -8.75999
604 1 14.6178 6.71866 16.7966 -8.75999
605 1 8.83159 4.48077 13.7819 -8.75999
606 1 10.9634 4.48077 15.5046 -8.75999
607 1 13.0951 4.48077 17.2273 -8.76006
608 1 15.2269 4.48077 18.95 -8.76017
609 1 9.44067 6.71866 15.9353 -8.75999
610 1 11.5724 6.71866 17.658 -8.75997
611 1 13.7041 6.71862 19.3807 -8.7602
612 1 15.836 6.7185 21.1033 -8.75973
613 1 10.0497 4.48077 18.0887 -8.75984
614 1 12.1815 4.48077 19.8115 -8.76029
615 1 14.3132 4.48077 21.5342 -8.76081
616 1 8.52706 6.71866 18.5194 -8.75991
617 1 10.6588 6.71871 20.2422 -8.7598
618 1 12.7904 6.71853 21.9649 -8.7609
619 1 9.13631 4.48077 20.6725 -8.75964
620 1 11.2678 4.48077 22.3959 -8.76075
621 1 9.74529 6.71876 22.8264 -8.7593
622 1 13.3997 4.48077 0.861413 -7.62218
623 1 15.5314 4.48077 2.58414 -8.75975
624 1 14.9223 6.71866 0.430731 -7.32523
625 1 8.22312 4.48078 23.2558 -8.75977
626 1 10.3538 4.48078 24.9814 -8.7633
627 1 12.4835 4.48078 26.7054 -8.78255
628 1 14.6125 4.48078 28.4397 -8.77817
629 1 11.8763 6.71807 24.5498 -8.76381
630 1 14.0103 6.71699 26.2687 -8.75161
631 1 16.1451 6.72054 27.9936 -8.7499
632 1 8.83202 6.71844 25.4103 -8.7579
633 1 10.9593 6.71466 27.1379 -8.77166
634 1 13.0967 6.70966 28.8391 -8.72298
635 1 15.2343 6.71647 30.5618 -8.82776
636 1 9.44256 4.48078 27.5727 -8.76307
637 1 11.5664 4.48078 29.3136 -8.82371
638 1 13.6723 4.48078 31.0782 -8.77027
639 1 15.8653 4.48078 32.6208 -8.6082
640 1 10.0359 6.70446 29.7467 -8.69914
641 1 12.1657 6.75481 31.3639 -8.42495
642 1 14.2667 6.81606 33.101 -8.4424
643 1 8.55848 4.48078 30.1798 -8.71609
644 1 10.7335 4.48078 32.0547 -8.68494
645 1 13.4426 4.48079 34.0755 -8.50858
646 1 9.12787 6.68362 32.4225 -8.76268
647 1 11.4536 6.5734 33.9301 -8.47143
648 1 9.23731 4.48079 34.7856 -8.75557
649 1 7.74081 7.36595 34.9611 -8.39798
650 1 13.3991 4.48078 24.1186 -8.76331
651 1 15.5295 4.48078 25.8446 -8.7596
652 1 14.9226 6.71819 23.6868 -8.7584
Egb = 2.49664130454287
