ITEM: TIMESTEP
0
ITEM: NUMBER OF ATOMS
654
ITEM: BOX BOUNDS pp pp ss
0.0000000000000000e+00 8.2225188994253315e+00
0.0000000000000000e+00 1.7903089514651711e+01
-6.9884133564954405e-03 7.0212479925105200e+01
ITEM: ATOMS id type x y z c_eng
1 1 1.40389 0.0216996 37.8488 -8.80651
2 1 2.30979 0.0147073 40.4693 -8.78834
3 1 3.20582 0.0104841 43.0696 -8.76993
4 1 4.11496 0.006699 45.656 -8.7631
5 1 5.02631 0.00554846 48.2405 -8.76051
6 1 5.93885 0.00511256 50.8247 -8.76016
7 1 6.85211 0.00500272 53.4089 -8.75997
8 1 7.76572 0.00500272 55.993 -8.75999
9 1 0.805515 2.24289 40.0596 -8.6861
10 1 1.69215 2.24289 42.6363 -8.7494
11 1 2.59424 2.24289 45.2244 -8.76187
12 1 3.50443 2.24289 47.8095 -8.76093
13 1 4.41642 2.24289 50.394 -8.76044
14 1 5.32942 2.24289 52.9782 -8.75995
15 1 6.24303 2.24289 55.5623 -8.75999
16 1 7.15664 2.24289 58.1464 -8.75999
17 1 2.05647 2.24289 35.7357 -8.64854
18 1 2.97489 2.24289 38.294 -8.834
19 1 3.83913 2.24289 40.8962 -8.75904
20 1 4.73092 2.24289 43.4974 -8.76948
21 1 5.63837 2.24289 46.0852 -8.7617
22 1 6.54911 2.24289 48.6708 -8.76048
23 1 7.46118 2.24289 51.2555 -8.76025
24 1 0.152277 2.24289 53.8395 -8.75999
25 1 3.59577 17.8613 36.267 -8.46361
26 1 4.48739 0.01259 38.7339 -8.51396
27 1 5.3427 0.0176615 41.342 -8.7407
28 1 6.24962 0.00836072 43.9305 -8.75902
29 1 7.15921 0.00607733 46.5168 -8.76006
30 1 8.07114 0.00536078 49.1018 -8.76022
31 1 5.11529 2.24289 36.2083 -9.11812
32 1 5.95893 2.24289 39.1011 -8.66931
33 1 6.86672 2.24289 41.7603 -8.79405
34 1 7.7731 2.24289 44.3585 -8.76777
35 1 6.73966 17.8968 36.9509 -8.5514
36 1 7.48538 0.0179313 39.6368 -8.85753
37 1 0.167077 0.00843885 42.2115 -8.76596
38 1 8.11732 2.24289 37.5622 -8.07921
39 1 1.07104 0.00656218 44.795 -8.75914
40 1 1.98143 0.00559438 47.3792 -8.7601
41 1 2.89372 0.00520356 49.9634 -8.76009
42 1 3.80673 0.00500272 52.5475 -8.76001
43 1 4.72034 0.00500272 55.1316 -8.75999
44 1 5.63396 0.00500272 57.7157 -8.75999
45 1 0.459586 2.24289 46.9472 -8.76223
46 1 1.37133 2.24289 49.5325 -8.76068
47 1 2.28404 2.24289 52.1168 -8.76017
48 1 3.19765 2.24289 54.7009 -8.75999
49 1 4.11127 2.24289 57.285 -8.75999
50 1 0.761352 0.00500272 51.6861 -8.76022
51 1 1.67497 0.00500272 54.2702 -8.75999
52 1 2.58858 0.00500272 56.8543 -8.75999
53 1 1.06589 2.24289 56.4236 -8.75999
54 1 0.456814 0.00500272 58.577 -8.75999
55 1 1.37043 0.00500272 61.1611 -8.75999
56 1 2.28404 0.00500272 63.7452 -8.75999
57 1 3.19765 0.00500272 66.3293 -8.75991
58 1 4.11127 0.00500272 68.9134 -7.62235
59 1 0.761352 2.24289 63.3145 -8.75999
60 1 1.67497 2.24289 65.8986 -8.75999
61 1 2.58858 2.24289 68.4827 -7.93439
62 1 1.9795 2.24289 59.0077 -8.75999
63 1 2.89312 2.24289 61.5918 -8.75999
64 1 3.80673 2.24289 64.1759 -8.75999
65 1 4.72034 2.24289 66.76 -8.75991
66 1 5.63396 2.24289 69.3441 -7.62218
67 1 3.50219 0.00500272 59.4384 -8.75999
68 1 4.41581 0.00500272 62.0225 -8.75999
69 1 5.32942 0.00500272 64.6066 -8.75999
70 1 6.24303 0.00500272 67.1907 -8.75991
71 1 7.15664 0.00500272 69.7748 -7.32523
72 1 5.02488 2.24289 59.8691 -8.75999
73 1 5.93849 2.24289 62.4532 -8.75999
74 1 6.85211 2.24289 65.0373 -8.75999
75 1 7.76572 2.24289 67.6214 -8.75975
76 1 6.54757 0.00500272 60.2998 -8.75999
77 1 7.46118 0.00500272 62.8839 -8.75999
78 1 0.152277 0.00500272 65.4679 -8.75999
79 1 8.07026 2.24289 60.7305 -8.75999
80 1 1.06589 0.00500272 68.052 -8.47822
81 1 0.456814 2.24289 70.2054 -6.41377
82 1 0.960769 4.61805 34.7576 -8.64543
83 1 1.40389 4.46408 37.8488 -8.80651
84 1 2.30979 4.47107 40.4693 -8.78834
85 1 3.20582 4.47529 43.0696 -8.76993
86 1 4.11496 4.47908 45.656 -8.7631
87 1 5.02631 4.48023 48.2405 -8.76051
88 1 5.93885 4.48067 50.8247 -8.76016
89 1 6.85211 4.48078 53.4089 -8.75997
90 1 7.76572 4.48078 55.993 -8.75999
91 1 0.771236 6.72025 40.079 -8.59249
92 1 1.67534 6.71739 42.6455 -8.72925
93 1 2.58868 6.71737 45.2267 -8.7558
94 1 3.50227 6.71812 47.8102 -8.75931
95 1 4.41582 6.7185 50.3941 -8.75992
96 1 5.32942 6.71866 52.9782 -8.75996
97 1 6.24303 6.71866 55.5623 -8.75999
98 1 7.15664 6.71866 58.1464 -8.75999
99 1 1.94388 6.72925 36.0427 -7.82422
100 1 2.92372 6.72374 38.4201 -8.71693
101 1 3.81004 6.70944 40.9514 -8.73241
102 1 4.72244 6.7151 43.5114 -8.74912
103 1 5.63465 6.71749 46.0891 -8.75626
104 1 6.54772 6.71824 48.6718 -8.75905
105 1 7.46118 6.71866 51.2555 -8.75979
106 1 0.152277 6.71866 53.8395 -8.75999
107 1 3.59577 4.52754 36.267 -8.46361
108 1 4.48739 4.47319 38.7339 -8.51396
109 1 5.3427 4.46812 41.342 -8.7407
110 1 6.24962 4.47742 43.9305 -8.75902
111 1 7.15921 4.4797 46.5168 -8.76006
112 1 8.07114 4.48042 49.1018 -8.76022
113 1 5.05477 6.71599 36.4879 -8.75901
114 1 5.91464 6.69503 39.2144 -8.72447
115 1 6.85273 6.7139 41.7869 -8.77181
116 1 7.76648 6.71726 44.3667 -8.75993
117 1 6.73966 4.49211 36.9509 -8.5514
118 1 7.48538 4.46784 39.6368 -8.85753
119 1 0.167077 4.47734 42.2115 -8.76596
120 1 8.02595 6.71069 37.6284 -8.0953
121 1 1.07104 4.47921 44.795 -8.75914
122 1 1.98143 4.48018 47.3792 -8.7601
123 1 2.89372 4.48057 49.9634 -8.76009
124 1 3.80673 4.48078 52.5475 -8.76001
125 1 4.72034 4.48078 55.1316 -8.75999
126 1 5.63396 4.48078 57.7157 -8.75999
127 1 0.457079 6.71799 46.9494 -8.75987
128 1 1.37052 6.71841 49.5329 -8.75986
129 1 2.28404 6.71866 52.1168 -8.75989
130 1 3.19765 6.71866 54.7009 -8.75999
131 1 4.11127 6.71866 57.285 -8.75999
132 1 0.761352 4.48078 51.6861 -8.76022
133 1 1.67497 4.48078 54.2702 -8.75999
134 1 2.58858 4.48078 56.8543 -8.75999
135 1 1.06589 6.71866 56.4236 -8.75999
136 1 0.456814 4.48078 58.577 -8.75999
137 1 1.37043 4.48078 61.1611 -8.75999
138 1 2.28404 4.48078 63.7452 -8.75999
139 1 3.19765 4.48078 66.3293 -8.75991
140 1 4.11127 4.48078 68.9134 -7.62235
141 1 0.761352 6.71866 63.3145 -8.75999
142 1 1.67497 6.71866 65.8986 -8.75999
143 1 2.58858 6.71866 68.4827 -7.93439
144 1 1.9795 6.71866 59.0077 -8.75999
145 1 2.89312 6.71866 61.5918 -8.75999
146 1 3.80673 6.71866 64.1759 -8.75999
147 1 4.72034 6.71866 66.76 -8.75991
148 1 5.63396 6.71866 69.3441 -7.62218
149 1 3.50219 4.48078 59.4384 -8.75999
150 1 4.41581 4.48078 62.0225 -8.75999
151 1 5.32942 4.48078 64.6066 -8.75999
152 1 6.24303 4.48078 67.1907 -8.75991
153 1 7.15664 4.48078 69.7748 -7.32523
154 1 5.02488 6.71866 59.8691 -8.75999
155 1 5.93849 6.71866 62.4532 -8.75999
156 1 6.85211 6.71866 65.0373 -8.75999
157 1 7.76572 6.71866 67.6214 -8.75975
158 1 6.54757 4.48078 60.2998 -8.75999
159 1 7.46118 4.48078 62.8839 -8.75999
160 1 0.152277 4.48078 65.4679 -8.75999
161 1 8.07026 6.71866 60.7305 -8.75999
162 1 1.06589 4.48078 68.052 -8.47822
163 1 0.456814 6.71866 70.2054 -6.41377
164 1 1.25426 8.9828 37.7066 -8.85731
165 1 2.24662 8.96559 40.4614 -8.78191
166 1 3.18498 8.95676 43.0703 -8.77619
167 1 4.10719 8.95623 45.6566 -8.76315
168 1 5.02341 8.95635 48.2409 -8.76044
169 1 5.93813 8.95655 50.8248 -8.75996
170 1 6.85211 8.95655 53.4089 -8.76001
171 1 7.76572 8.95655 55.993 -8.75999
172 1 0.743884 11.1944 40.0362 -8.60753
173 1 1.65761 11.1944 42.6366 -8.7469
174 1 2.58173 11.1944 45.2244 -8.75949
175 1 3.49961 11.1944 47.8096 -8.76
176 1 4.41508 11.1944 50.394 -8.75986
177 1 5.32942 11.1944 52.9782 -8.76018
178 1 6.24303 11.1944 55.5623 -8.75999
179 1 7.15664 11.1944 58.1464 -8.75999
180 1 1.83741 11.1944 35.8546 -8.38957
181 1 2.89676 11.1944 38.3116 -8.83238
182 1 3.77738 11.1944 40.9273 -8.77792
183 1 4.70965 11.1944 43.5055 -8.76451
184 1 5.62937 11.1944 46.0881 -8.7596
185 1 6.54588 11.1944 48.6716 -8.75984
186 1 7.46118 11.1944 51.2555 -8.75985
187 1 0.152277 11.1944 53.8395 -8.75999
188 1 3.5675 8.98713 36.2992 -8.22885
189 1 4.37338 8.94194 38.8118 -8.32198
190 1 5.31118 8.95647 41.3599 -8.72383
191 1 6.23659 8.95657 43.9355 -8.7523
192 1 7.15391 8.95635 46.5186 -8.75891
193 1 8.06933 8.95643 49.1022 -8.75989
194 1 5.17464 11.1944 36.2135 -8.94635
195 1 5.85251 11.1944 39.1674 -8.73594
196 1 6.83285 11.1944 41.7713 -8.78974
197 1 7.7569 11.1944 44.3638 -8.76596
198 1 6.41991 8.87945 37.1114 -8.40334
199 1 7.43581 8.95779 39.6512 -8.85522
200 1 0.142884 8.9589 42.216 -8.75355
201 1 7.9437 11.1944 37.5826 -8.4663
202 1 1.06112 8.95662 44.7968 -8.7575
203 1 1.97766 8.95636 47.3796 -8.75896
204 1 2.89252 8.95647 49.9634 -8.75964
205 1 3.80673 8.95655 52.5475 -8.75995
206 1 4.72034 8.95655 55.1316 -8.75999
207 1 5.63396 8.95655 57.7157 -8.75999
208 1 0.453455 11.1944 46.9487 -8.76121
209 1 1.36938 11.1944 49.5327 -8.75998
210 1 2.28404 11.1944 52.1168 -8.76001
211 1 3.19765 11.1944 54.7009 -8.75999
212 1 4.11127 11.1944 57.285 -8.75999
213 1 0.761352 8.95655 51.6861 -8.75981
214 1 1.67497 8.95655 54.2702 -8.75999
215 1 2.58858 8.95655 56.8543 -8.75999
216 1 1.06589 11.1944 56.4236 -8.75999
217 1 0.456814 8.95655 58.577 -8.75999
218 1 1.37043 8.95655 61.1611 -8.75999
219 1 2.28404 8.95655 63.7452 -8.75999
220 1 3.19765 8.95655 66.3293 -8.75991
221 1 4.11127 8.95655 68.9134 -7.62235
222 1 0.761352 11.1944 63.3145 -8.75999
223 1 1.67497 11.1944 65.8986 -8.75999
224 1 2.58858 11.1944 68.4827 -7.93439
225 1 1.9795 11.1944 59.0077 -8.75999
226 1 2.89312 11.1944 61.5918 -8.75999
227 1 3.80673 11.1944 64.1759 -8.75999
228 1 4.72034 11.1944 66.76 -8.75991
229 1 5.63396 11.1944 69.3441 -7.62218
230 1 3.50219 8.95655 59.4384 -8.75999
231 1 4.41581 8.95655 62.0225 -8.75999
232 1 5.32942 8.95655 64.6066 -8.75999
233 1 6.24303 8.95655 67.1907 -8.75991
234 1 7.15664 8.95655 69.7748 -7.32523
235 1 5.02488 11.1944 59.8691 -8.75999
236 1 5.93849 11.1944 62.4532 -8.75999
237 1 6.85211 11.1944 65.0373 -8.75999
238 1 7.76572 11.1944 67.6214 -8.75975
239 1 6.54757 8.95655 60.2998 -8.75999
240 1 7.46118 8.95655 62.8839 -8.75999
241 1 0.152277 8.95655 65.4679 -8.75999
242 1 8.07026 11.1944 60.7305 -8.75999
243 1 1.06589 8.95655 68.052 -8.47822
244 1 0.456814 11.1944 70.2054 -6.41377
245 1 7.71277 12.515 35.1285 -8.11305
246 1 1.25426 13.4061 37.7066 -8.85731
247 1 2.24662 13.4233 40.4614 -8.78191
248 1 3.18498 13.4321 43.0703 -8.77619
249 1 4.10719 13.4326 45.6566 -8.76315
250 1 5.02341 13.4325 48.2409 -8.76044
251 1 5.93813 13.4323 50.8248 -8.75996
252 1 6.85211 13.4323 53.4089 -8.76001
253 1 7.76572 13.4323 55.993 -8.75999
254 1 0.771236 15.6686 40.079 -8.59249
255 1 1.67534 15.6715 42.6455 -8.72925
256 1 2.58868 15.6715 45.2267 -8.7558
257 1 3.50227 15.6707 47.8102 -8.75931
258 1 4.41582 15.6704 50.3941 -8.75992
259 1 5.32942 15.6702 52.9782 -8.75996
260 1 6.24303 15.6702 55.5623 -8.75999
261 1 7.15664 15.6702 58.1464 -8.75999
262 1 1.94388 15.6596 36.0427 -7.82422
263 1 2.92372 15.6651 38.4201 -8.71693
264 1 3.81004 15.6794 40.9514 -8.73241
265 1 4.72244 15.6738 43.5114 -8.74912
266 1 5.63465 15.6714 46.0891 -8.75626
267 1 6.54772 15.6706 48.6718 -8.75905
268 1 7.46118 15.6702 51.2555 -8.75979
269 1 0.152277 15.6702 53.8395 -8.75999
270 1 3.5675 13.4017 36.2992 -8.22885
271 1 4.37338 13.4469 38.8118 -8.32198
272 1 5.31118 13.4324 41.3599 -8.72383
273 1 6.23659 13.4323 43.9355 -8.7523
274 1 7.15391 13.4325 46.5186 -8.75891
275 1 8.06933 13.4324 49.1022 -8.75989
276 1 5.05477 15.6729 36.4879 -8.75901
277 1 5.91464 15.6938 39.2144 -8.72447
278 1 6.85273 15.675 41.7869 -8.77181
279 1 7.76648 15.6716 44.3667 -8.75993
280 1 6.41991 13.5094 37.1114 -8.40334
281 1 7.43581 13.4311 39.6512 -8.85522
282 1 0.142884 13.43 42.216 -8.75355
283 1 8.02595 15.6782 37.6284 -8.0953
284 1 1.06112 13.4322 44.7968 -8.7575
285 1 1.97766 13.4325 47.3796 -8.75896
286 1 2.89252 13.4324 49.9634 -8.75964
287 1 3.80673 13.4323 52.5475 -8.75995
288 1 4.72034 13.4323 55.1316 -8.75999
289 1 5.63396 13.4323 57.7157 -8.75999
290 1 0.457079 15.6709 46.9494 -8.75987
291 1 1.37052 15.6705 49.5329 -8.75986
292 1 2.28404 15.6702 52.1168 -8.75989
293 1 3.19765 15.6702 54.7009 -8.75999
294 1 4.11127 15.6702 57.285 -8.75999
295 1 0.761352 13.4323 51.6861 -8.75981
296 1 1.67497 13.4323 54.2702 -8.75999
297 1 2.58858 13.4323 56.8543 -8.75999
298 1 1.06589 15.6702 56.4236 -8.75999
299 1 0.456814 13.4323 58.577 -8.75999
300 1 1.37043 13.4323 61.1611 -8.75999
301 1 2.28404 13.4323 63.7452 -8.75999
302 1 3.19765 13.4323 66.3293 -8.75991
303 1 4.11127 13.4323 68.9134 -7.62235
304 1 0.761352 15.6702 63.3145 -8.75999
305 1 1.67497 15.6702 65.8986 -8.75999
306 1 2.58858 15.6702 68.4827 -7.93439
307 1 1.9795 15.6702 59.0077 -8.75999
308 1 2.89312 15.6702 61.5918 -8.75999
309 1 3.80673 15.6702 64.1759 -8.75999
310 1 4.72034 15.6702 66.76 -8.75991
311 1 5.63396 15.6702 69.3441 -7.62218
312 1 3.50219 13.4323 59.4384 -8.75999
313 1 4.41581 13.4323 62.0225 -8.75999
314 1 5.32942 13.4323 64.6066 -8.75999
315 1 6.24303 13.4323 67.1907 -8.75991
316 1 7.15664 13.4323 69.7748 -7.32523
317 1 5.02488 15.6702 59.8691 -8.75999
318 1 5.93849 15.6702 62.4532 -8.75999
319 1 6.85211 15.6702 65.0373 -8.75999
320 1 7.76572 15.6702 67.6214 -8.75975
321 1 6.54757 13.4323 60.2998 -8.75999
322 1 7.46118 13.4323 62.8839 -8.75999
323 1 0.152277 13.4323 65.4679 -8.75999
324 1 8.07026 15.6702 60.7305 -8.75999
325 1 1.06589 13.4323 68.052 -8.47822
326 1 0.456814 15.6702 70.2054 -6.41377
327 1 0 0.005 5e-05 -6.41377
328 1 2.13176 0.005 1.72278 -7.93439
329 1 4.26353 0.005 3.4455 -8.75991
330 1 6.39529 0.005 5.16823 -8.75999
331 1 3.65445 2.24289 1.29209 -7.62235
332 1 5.78622 2.24289 3.01482 -8.75991
333 1 7.91798 2.24289 4.73755 -8.75999
334 1 0.609075 2.24289 2.15346 -8.47822
335 1 2.74084 2.24289 3.87618 -8.75991
336 1 4.8726 2.24289 5.59891 -8.75999
337 1 7.00437 2.24289 7.32163 -8.75999
338 1 1.21815 0.005 4.30686 -8.75999
339 1 3.34992 0.005 6.02959 -8.75999
340 1 5.48168 0.005 7.75232 -8.75999
341 1 7.61344 0.005 9.47504 -8.75999
342 1 1.82723 2.24289 6.46027 -8.75999
343 1 3.95899 2.24289 8.183 -8.75999
344 1 6.09075 2.24289 9.90572 -8.75999
345 1 0.304538 0.005 6.89095 -8.75999
346 1 2.4363 0.005 8.61368 -8.75999
347 1 4.56807 0.005 10.3364 -8.75999
348 1 6.69983 0.005 12.0591 -8.75999
349 1 0.913613 2.24289 9.04436 -8.75999
350 1 3.04538 2.24289 10.7671 -8.75999
351 1 5.17714 2.24289 12.4898 -8.75999
352 1 7.30891 2.24289 14.2125 -8.75999
353 1 1.52269 0.005 11.1978 -8.75999
354 1 3.65445 0.005 12.9205 -8.75999
355 1 5.78622 0.005 14.6432 -8.75999
356 1 7.91798 0.005 16.3659 -8.75999
357 1 0 2.24289 11.6284 -8.75999
358 1 2.13176 2.24289 13.3512 -8.75999
359 1 4.26353 2.24289 15.0739 -8.75999
360 1 6.39529 2.24289 16.7966 -8.76007
361 1 0.609075 0.005 13.7819 -8.75999
362 1 2.74084 0.005 15.5046 -8.75999
363 1 4.8726 0.005 17.2273 -8.7601
364 1 7.00437 0.005 18.95 -8.75963
365 1 1.21815 2.24289 15.9353 -8.75999
366 1 3.34992 2.24289 17.658 -8.76003
367 1 5.48094 2.24289 19.3807 -8.7599
368 1 7.6111 2.24289 21.1038 -8.76014
369 1 1.82723 0.005 18.0887 -8.76002
370 1 3.95831 0.00492902 19.8113 -8.75963
371 1 6.08906 0.00484666 21.5338 -8.75898
372 1 0.304538 2.24289 18.5194 -8.75985
373 1 2.43491 2.24289 20.2419 -8.75971
374 1 4.56489 2.24289 21.9648 -8.76121
375 1 0.91237 0.00483107 20.6727 -8.76037
376 1 3.04276 0.00479662 22.3949 -8.7589
377 1 1.51824 2.24289 22.8254 -8.75962
378 1 5.17714 0.005 0.861413 -7.62218
379 1 7.30891 0.005 2.58414 -8.75975
380 1 6.69983 2.24289 0.430731 -7.32523
381 1 8.21852 0.00468354 23.2569 -8.76313
382 1 2.12537 0.00501354 24.9779 -8.7523
383 1 4.25417 0.00735229 26.6974 -8.75355
384 1 6.3579 0.0140392 28.4521 -8.78191
385 1 3.64571 2.24289 24.5497 -8.76596
386 1 5.76891 2.24289 26.2769 -8.7469
387 1 7.88866 2.24289 27.9862 -8.77791
388 1 0.598437 2.24289 25.408 -8.7645
389 1 2.72162 2.24289 27.1421 -8.78974
390 1 4.85516 2.24289 28.8773 -8.60752
391 1 7.00802 2.24289 30.6019 -8.83238
392 1 1.19994 0.00492118 27.5535 -8.72383
393 1 3.32456 0.00624224 29.2622 -8.85522
394 1 5.36552 0.0312502 31.2069 -8.85731
395 1 7.67877 0.0355801 32.6142 -8.22885
396 1 1.74126 2.24289 29.7461 -8.73593
397 1 3.83245 2.24289 31.3308 -8.4663
398 1 5.94867 2.24289 33.0588 -8.38956
399 1 0.262131 17.8935 30.1017 -8.32198
400 1 2.30866 17.831 31.802 -8.40334
401 1 5.89471 17.7478 34.504 -8.28681
402 1 1.06339 2.24289 32.6999 -8.94636
403 1 3.60152 0.922297 33.7849 -8.11305
404 1 0.960769 17.7708 34.7576 -8.64543
405 1 7.63344 2.24289 34.9575 -8.44301
406 1 5.17244 0.0050702 24.1166 -8.7575
407 1 7.29627 0.00520549 25.8432 -8.77618
408 1 6.69308 2.24289 23.689 -8.75949
409 1 0 4.48077 5e-05 -6.41377
410 1 2.13176 4.48077 1.72278 -7.93439
411 1 4.26353 4.48077 3.4455 -8.75991
412 1 6.39529 4.48077 5.16823 -8.75999
413 1 3.65445 6.71866 1.29209 -7.62235
414 1 5.78622 6.71866 3.01482 -8.75991
415 1 7.91798 6.71866 4.73755 -8.75999
416 1 0.609075 6.71866 2.15346 -8.47822
417 1 2.74084 6.71866 3.87618 -8.75991
418 1 4.8726 6.71866 5.59891 -8.75999
419 1 7.00437 6.71866 7.32163 -8.75999
420 1 1.21815 4.48077 4.30686 -8.75999
421 1 3.34992 4.48077 6.02959 -8.75999
422 1 5.48168 4.48077 7.75232 -8.75999
423 1 7.61344 4.48077 9.47504 -8.75999
424 1 1.82723 6.71866 6.46027 -8.75999
425 1 3.95899 6.71866 8.183 -8.75999
426 1 6.09075 6.71866 9.90572 -8.75999
427 1 0.304538 4.48077 6.89095 -8.75999
428 1 2.4363 4.48077 8.61368 -8.75999
429 1 4.56807 4.48077 10.3364 -8.75999
430 1 6.69983 4.48077 12.0591 -8.75999
431 1 0.913613 6.71866 9.04436 -8.75999
432 1 3.04538 6.71866 10.7671 -8.75999
433 1 5.17714 6.71866 12.4898 -8.75999
434 1 7.30891 6.71866 14.2125 -8.75999
435 1 1.52269 4.48077 11.1978 -8.75999
436 1 3.65445 4.48077 12.9205 -8.75999
437 1 5.78622 4.48077 14.6432 -8.75999
438 1 7.91798 4.48077 16.3659 -8.75999
439 1 0 6.71866 11.6284 -8.75999
440 1 2.13176 6.71866 13.3512 -8.75999
441 1 4.26353 6.71866 15.0739 -8.75999
442 1 6.39529 6.71866 16.7966 -8.75993
443 1 0.609075 4.48077 13.7819 -8.75999
444 1 2.74084 4.48077 15.5046 -8.75999
445 1 4.8726 4.48077 17.2273 -8.7601
446 1 7.00437 4.48077 18.95 -8.75963
447 1 1.21815 6.71866 15.9353 -8.75999
448 1 3.34992 6.71866 17.658 -8.75975
449 1 5.48175 6.71875 19.3805 -8.75984
450 1 7.61353 6.71917 21.1033 -8.75934
451 1 1.82723 4.48077 18.0887 -8.76002
452 1 3.95831 4.48084 19.8113 -8.75963
453 1 6.08906 4.48093 21.5338 -8.75898
454 1 0.304538 6.71866 18.5194 -8.75986
455 1 2.43646 6.71906 20.2417 -8.75909
456 1 4.56834 6.71932 21.9641 -8.75986
457 1 0.91237 4.48094 20.6727 -8.76037
458 1 3.04276 4.48098 22.3949 -8.7589
459 1 1.52339 6.71984 22.8243 -8.75625
460 1 5.17714 4.48077 0.861413 -7.62218
461 1 7.30891 4.48077 2.58414 -8.75975
462 1 6.69983 6.71866 0.430731 -7.32523
463 1 8.21852 4.48109 23.2569 -8.76313
464 1 2.12537 4.48076 24.9779 -8.7523
465 1 4.25417 4.47842 26.6974 -8.75355
466 1 6.3579 4.47173 28.4521 -8.78191
467 1 3.65522 6.72007 24.5467 -8.75993
468 1 5.7866 6.71993 26.2679 -8.72925
469 1 7.92129 6.72788 27.9621 -8.73241
470 1 0.611177 6.72223 25.4021 -8.74911
471 1 2.74147 6.72343 27.1265 -8.77181
472 1 4.88249 6.71707 28.8345 -8.59249
473 1 7.03498 6.71358 30.4933 -8.71693
474 1 1.19994 4.48085 27.5535 -8.72383
475 1 3.32456 4.47953 29.2622 -8.85522
476 1 5.36552 4.45452 31.2069 -8.85731
477 1 7.67877 4.45019 32.6142 -8.22885
478 1 1.80338 6.7423 29.6991 -8.72448
479 1 3.91469 6.72663 31.285 -8.0953
480 1 6.05514 6.70807 32.8707 -7.82422
481 1 0.262131 4.49539 30.1017 -8.32198
482 1 2.30866 4.55787 31.802 -8.40334
483 1 5.89471 4.64108 34.504 -8.28681
484 1 0.943514 6.72133 32.4255 -8.75901
485 1 3.44559 6.45627 33.9423 -8.68395
486 1 3.60152 3.56348 33.7849 -8.11305
487 1 7.55685 6.98105 34.9712 -8.68395
488 1 5.17244 4.4807 24.1166 -8.7575
489 1 7.29627 4.48057 25.8432 -8.77618
490 1 6.69993 6.71995 23.6868 -8.75579
491 1 0 8.95654 5e-05 -6.41377
492 1 2.13176 8.95654 1.72278 -7.93439
493 1 4.26353 8.95654 3.4455 -8.75991
494 1 6.39529 8.95654 5.16823 -8.75999
495 1 3.65445 11.1944 1.29209 -7.62235
496 1 5.78622 11.1944 3.01482 -8.75991
497 1 7.91798 11.1944 4.73755 -8.75999
498 1 0.609075 11.1944 2.15346 -8.47822
499 1 2.74084 11.1944 3.87618 -8.75991
500 1 4.8726 11.1944 5.59891 -8.75999
501 1 7.00437 11.1944 7.32163 -8.75999
502 1 1.21815 8.95654 4.30686 -8.75999
503 1 3.34992 8.95654 6.02959 -8.75999
504 1 5.48168 8.95654 7.75232 -8.75999
505 1 7.61344 8.95654 9.47504 -8.75999
506 1 1.82723 11.1944 6.46027 -8.75999
507 1 3.95899 11.1944 8.183 -8.75999
508 1 6.09075 11.1944 9.90572 -8.75999
509 1 0.304538 8.95654 6.89095 -8.75999
510 1 2.4363 8.95654 8.61368 -8.75999
511 1 4.56807 8.95654 10.3364 -8.75999
512 1 6.69983 8.95654 12.0591 -8.75999
513 1 0.913613 11.1944 9.04436 -8.75999
514 1 3.04538 11.1944 10.7671 -8.75999
515 1 5.17714 11.1944 12.4898 -8.75999
516 1 7.30891 11.1944 14.2125 -8.75999
517 1 1.52269 8.95654 11.1978 -8.75999
518 1 3.65445 8.95654 12.9205 -8.75999
519 1 5.78622 8.95654 14.6432 -8.75999
520 1 7.91798 8.95654 16.3659 -8.75999
521 1 0 11.1944 11.6284 -8.75999
522 1 2.13176 11.1944 13.3512 -8.75999
523 1 4.26353 11.1944 15.0739 -8.75999
524 1 6.39529 11.1944 16.7966 -8.76002
525 1 0.609075 8.95654 13.7819 -8.75999
526 1 2.74084 8.95654 15.5046 -8.75999
527 1 4.8726 8.95654 17.2273 -8.75994
528 1 7.00437 8.95654 18.95 -8.76012
529 1 1.21815 11.1944 15.9353 -8.75999
530 1 3.34992 11.1944 17.658 -8.76018
531 1 5.48233 11.1944 19.381 -8.76074
532 1 7.61547 11.1944 21.1039 -8.76077
533 1 1.82723 8.95654 18.0887 -8.76008
534 1 3.95964 8.95687 19.8116 -8.76048
535 1 6.09254 8.95711 21.5342 -8.76009
536 1 0.304538 11.1944 18.5194 -8.76058
537 1 2.43756 11.1944 20.2426 -8.76055
538 1 4.57067 11.1944 21.9662 -8.76224
539 1 0.914824 8.95708 20.6728 -8.76055
540 1 3.04783 8.95763 22.3966 -8.76008
541 1 1.52699 11.1944 22.8282 -8.76169
542 1 5.17714 8.95654 0.861413 -7.62218
543 1 7.30891 8.95654 2.58414 -8.75975
544 1 6.69983 11.1944 0.430731 -7.32523
545 1 0.00362552 8.95825 23.2574 -8.76311
546 1 2.13832 8.95991 24.983 -8.75902
547 1 4.27831 8.95999 26.702 -8.76596
548 1 6.42104 8.96625 28.4442 -8.78834
549 1 3.66176 11.1944 24.5549 -8.76777
550 1 5.80337 11.1944 26.2771 -8.74941
551 1 7.95036 11.1944 28.0173 -8.75904
552 1 0.619611 11.1944 25.416 -8.76949
553 1 2.75543 11.1944 27.1532 -8.79406
554 1 4.91676 11.1944 28.8539 -8.6861
555 1 7.08614 11.1944 30.6194 -8.834
556 1 1.23142 8.96921 27.5714 -8.7407
557 1 3.37411 8.96948 29.2766 -8.85753
558 1 5.51514 8.97325 31.0647 -8.80651
559 1 7.70703 8.90978 32.6464 -8.46361
560 1 1.84766 11.1944 29.8123 -8.66931
561 1 4.00605 11.1944 31.3512 -8.07921
562 1 6.16773 11.1944 33.1778 -8.64854
563 1 0.376126 8.96414 30.1796 -8.51396
564 1 2.62839 8.94522 31.9625 -8.5514
565 1 5.07202 8.81927 34.1558 -8.64543
566 1 1.00402 11.1944 32.7051 -9.11812
567 1 3.52217 11.1944 33.956 -8.44301
568 1 1.78345 8.79624 34.4095 -8.28681
569 1 7.71277 9.87384 35.1285 -8.11305
570 1 5.18223 8.95811 24.1184 -8.75914
571 1 7.31705 8.96203 25.8439 -8.76994
572 1 6.7054 11.1944 23.689 -8.76189
573 1 0 13.4323 5e-05 -6.41377
574 1 2.13176 13.4323 1.72278 -7.93439
575 1 4.26353 13.4323 3.4455 -8.75991
576 1 6.39529 13.4323 5.16823 -8.75999
577 1 3.65445 15.6702 1.29209 -7.62235
578 1 5.78622 15.6702 3.01482 -8.75991
579 1 7.91798 15.6702 4.73755 -8.75999
580 1 0.609075 15.6702 2.15346 -8.47822
581 1 2.74084 15.6702 3.87618 -8.75991
582 1 4.8726 15.6702 5.59891 -8.75999
583 1 7.00437 15.6702 7.32163 -8.75999
584 1 1.21815 13.4323 4.30686 -8.75999
585 1 3.34992 13.4323 6.02959 -8.75999
586 1 5.48168 13.4323 7.75232 -8.75999
587 1 7.61344 13.4323 9.47504 -8.75999
588 1 1.82723 15.6702 6.46027 -8.75999
589 1 3.95899 15.6702 8.183 -8.75999
590 1 6.09075 15.6702 9.90572 -8.75999
591 1 0.304538 13.4323 6.89095 -8.75999
592 1 2.4363 13.4323 8.61368 -8.75999
593 1 4.56807 13.4323 10.3364 -8.75999
594 1 6.69983 13.4323 12.0591 -8.75999
595 1 0.913613 15.6702 9.04436 -8.75999
596 1 3.04538 15.6702 10.7671 -8.75999
597 1 5.17714 15.6702 12.4898 -8.75999
598 1 7.30891 15.6702 14.2125 -8.75999
599 1 1.52269 13.4323 11.1978 -8.75999
600 1 3.65445 13.4323 12.9205 -8.75999
601 1 5.78622 13.4323 14.6432 -8.75999
602 1 7.91798 13.4323 16.3659 -8.75999
603 1 0 15.6702 11.6284 -8.75999
604 1 2.13176 15.6702 13.3512 -8.75999
605 1 4.26353 15.6702 15.0739 -8.75999
606 1 6.39529 15.6702 16.7966 -8.75993
607 1 0.609075 13.4323 13.7819 -8.75999
608 1 2.74084 13.4323 15.5046 -8.75999
609 1 4.8726 13.4323 17.2273 -8.75994
610 1 7.00437 13.4323 18.95 -8.76012
611 1 1.21815 15.6702 15.9353 -8.75999
612 1 3.34992 15.6702 17.658 -8.75975
613 1 5.48175 15.6701 19.3805 -8.75984
614 1 7.61353 15.6697 21.1033 -8.75934
615 1 1.82723 13.4323 18.0887 -8.76008
616 1 3.95964 13.432 19.8116 -8.76048
617 1 6.09254 13.4317 21.5342 -8.76009
618 1 0.304538 15.6702 18.5194 -8.75986
619 1 2.43646 15.6698 20.2417 -8.75909
620 1 4.56834 15.6695 21.9641 -8.75986
621 1 0.914824 13.4318 20.6728 -8.76055
622 1 3.04783 13.4312 22.3966 -8.76008
623 1 1.52339 15.669 22.8243 -8.75625
624 1 5.17714 13.4323 0.861413 -7.62218
625 1 7.30891 13.4323 2.58414 -8.75975
626 1 6.69983 15.6702 0.430731 -7.32523
627 1 0.00362553 13.4306 23.2574 -8.76311
628 1 2.13832 13.4289 24.983 -8.75902
629 1 4.27831 13.4289 26.702 -8.76596
630 1 6.42104 13.4226 28.4442 -8.78834
631 1 3.65522 15.6688 24.5467 -8.75993
632 1 5.7866 15.6689 26.2679 -8.72925
633 1 7.92129 15.661 27.9621 -8.73241
634 1 0.611177 15.6666 25.4021 -8.74911
635 1 2.74147 15.6654 27.1265 -8.77181
636 1 4.88249 15.6718 28.8345 -8.59249
637 1 7.03498 15.6753 30.4933 -8.71693
638 1 1.23142 13.4197 27.5714 -8.7407
639 1 3.37411 13.4194 29.2766 -8.85753
640 1 5.51514 13.4156 31.0647 -8.80651
641 1 7.70703 13.4791 32.6464 -8.46361
642 1 1.80338 15.6466 29.6991 -8.72448
643 1 3.91469 15.6622 31.285 -8.0953
644 1 6.05514 15.6808 32.8707 -7.82422
645 1 0.376126 13.4247 30.1796 -8.51396
646 1 2.62839 13.4436 31.9625 -8.5514
647 1 5.07202 13.5696 34.1558 -8.64543
648 1 0.943514 15.6675 32.4255 -8.75901
649 1 3.44559 15.9326 33.9423 -8.68395
650 1 1.78345 13.5926 34.4095 -8.28681
651 1 7.55685 15.4078 34.9712 -8.68395
652 1 5.18223 13.4308 24.1184 -8.75914
653 1 7.31705 13.4268 25.8439 -8.76994
654 1 6.69993 15.6689 23.6868 -8.75579
Egb = 2.44564176214216
