ITEM: TIMESTEP
0
ITEM: NUMBER OF ATOMS
1470
ITEM: BOX BOUNDS pp pp ss
0.0000000000000000e+00 2.4667556698275995e+01
0.0000000000000000e+00 1.3427317135988783e+01
-6.9743108378433625e-03 7.0131832788985918e+01
ITEM: ATOMS id type x y z c_eng
1 1 5.24216 0.0158277 37.8518 -8.5061
2 1 6.20644 13.4156 40.3693 -8.74514
3 1 7.09016 13.4192 42.9781 -8.76617
4 1 8.00039 13.4193 45.5711 -8.76203
5 1 8.91364 13.4192 48.1586 -8.76107
6 1 9.82741 13.419 50.7438 -8.76047
7 1 10.7411 13.419 53.3282 -8.7601
8 1 11.6547 13.419 55.9123 -8.75999
9 1 4.65244 2.21911 39.9902 -8.80811
10 1 5.56966 2.22343 42.56 -8.74723
11 1 6.47961 2.22715 45.1443 -8.76035
12 1 7.39191 2.2287 47.7289 -8.76054
13 1 8.305 2.22927 50.3133 -8.76026
14 1 9.21837 2.22955 52.8976 -8.76001
15 1 10.132 2.22955 55.4816 -8.75999
16 1 11.0456 2.22955 58.0657 -8.75999
17 1 5.73666 2.24467 35.7995 -8.48929
18 1 6.78846 2.21545 38.2265 -8.39194
19 1 7.6913 2.21818 40.813 -8.65552
20 1 8.60892 2.22551 43.4118 -8.76044
21 1 9.52298 2.22819 46.0029 -8.76328
22 1 10.4365 2.22915 48.5897 -8.76144
23 1 11.3501 2.22955 51.1748 -8.76051
24 1 12.2637 2.22955 53.7589 -8.75999
25 1 7.00253 13.2441 35.7245 -8.87573
26 1 8.40005 13.4225 38.4685 -8.65256
27 1 9.2164 13.4226 41.2275 -8.81929
28 1 10.1298 13.4215 43.8429 -8.77824
29 1 11.0445 13.4202 46.4346 -8.76373
30 1 11.9588 13.4194 49.0207 -8.76074
31 1 8.91019 2.15824 36.4798 -8.82104
32 1 9.798 2.26484 39.1412 -8.53556
33 1 10.7413 2.22479 41.6926 -8.73912
34 1 11.6552 2.22827 44.2785 -8.75734
35 1 11.1185 0.0211208 36.4367 -8.41364
36 1 11.3262 13.4256 39.4622 -8.78418
37 1 12.2568 13.4243 42.1088 -8.77103
38 1 11.8942 2.31546 37.4275 -8.40948
39 1 4.95734 13.4174 44.7132 -8.76111
40 1 5.86914 13.4184 47.298 -8.76067
41 1 6.78223 13.4188 49.8826 -8.7602
42 1 7.69568 13.419 52.4669 -8.76012
43 1 8.60929 13.419 55.051 -8.75999
44 1 9.52291 13.419 57.635 -8.75999
45 1 4.34706 2.22836 46.8706 -8.75913
46 1 5.2599 2.22913 49.4528 -8.75983
47 1 6.17299 2.22955 52.0362 -8.75985
48 1 7.08661 2.22955 54.6203 -8.75999
49 1 8.00022 2.22955 57.2044 -8.75999
50 1 4.6503 13.419 51.6055 -8.76017
51 1 5.56392 13.419 54.1896 -8.75999
52 1 6.47753 13.419 56.7737 -8.75999
53 1 4.95484 2.22955 56.343 -8.75999
54 1 4.34577 13.419 58.4964 -8.75999
55 1 5.25938 13.419 61.0805 -8.75999
56 1 6.17299 13.419 63.6646 -8.75999
57 1 7.08661 13.419 66.2487 -8.75991
58 1 8.00022 13.419 68.8328 -7.62235
59 1 4.6503 2.22955 63.2339 -8.75999
60 1 5.56392 2.22955 65.818 -8.75999
61 1 6.47753 2.22955 68.4021 -7.93439
62 1 5.86845 2.22955 58.9271 -8.75999
63 1 6.78207 2.22955 61.5112 -8.75999
64 1 7.69568 2.22955 64.0953 -8.75999
65 1 8.60929 2.22955 66.6794 -8.75991
66 1 9.52291 2.22955 69.2634 -7.62218
67 1 7.39114 13.419 59.3578 -8.75999
68 1 8.30476 13.419 61.9419 -8.75999
69 1 9.21837 13.419 64.526 -8.75999
70 1 10.132 13.419 67.11 -8.75991
71 1 11.0456 13.419 69.6941 -7.32523
72 1 8.91383 2.22955 59.7885 -8.75999
73 1 9.82745 2.22955 62.3725 -8.75999
74 1 10.7411 2.22955 64.9566 -8.75999
75 1 11.6547 2.22955 67.5407 -8.75975
76 1 10.4365 13.419 60.2191 -8.75999
77 1 11.3501 13.419 62.8032 -8.75999
78 1 12.2637 13.419 65.3873 -8.75999
79 1 11.9592 2.22955 60.6498 -8.75999
80 1 4.95484 13.419 67.9714 -8.47822
81 1 4.34577 2.22955 70.1248 -6.41377
82 1 5.24393 4.42695 37.883 -8.58754
83 1 6.17863 4.46481 40.4145 -8.71423
84 1 7.08567 4.46295 42.9948 -8.74736
85 1 8.00088 4.46506 45.5767 -8.75965
86 1 8.91425 4.46658 48.1602 -8.76007
87 1 9.82757 4.46719 50.7442 -8.76016
88 1 10.7411 4.46744 53.3282 -8.75997
89 1 11.6547 4.46744 55.9123 -8.75999
90 1 4.65885 6.70621 39.9947 -8.80864
91 1 5.56449 6.70798 42.57 -8.76057
92 1 6.47665 6.70608 45.1492 -8.75639
93 1 7.39112 6.7055 47.7304 -8.7582
94 1 8.30475 6.70538 50.3137 -8.75947
95 1 9.21837 6.70533 52.8976 -8.75985
96 1 10.132 6.70533 55.4816 -8.75999
97 1 11.0456 6.70533 58.0657 -8.75999
98 1 5.51724 7.40581 35.5858 -8.45481
99 1 6.77193 6.70336 38.175 -8.7808
100 1 7.67954 6.7006 40.8328 -8.75338
101 1 8.60386 6.70246 43.4292 -8.77361
102 1 9.52269 6.70411 46.0094 -8.761
103 1 10.4367 6.70489 48.5917 -8.75994
104 1 11.3501 6.70533 51.1748 -8.75992
105 1 12.2637 6.70533 53.7589 -8.75999
106 1 7.1327 4.62886 35.82 -8.90806
107 1 8.24878 4.46032 38.6272 -8.72382
108 1 9.20311 4.46473 41.2726 -8.81056
109 1 10.1325 4.46248 43.8539 -8.76941
110 1 11.0463 4.46555 46.4375 -8.76182
111 1 11.9595 4.4668 49.0215 -8.76055
112 1 9.05838 6.703 36.6338 -8.3919
113 1 9.81345 6.69428 39.183 -8.7271
114 1 10.7404 6.69964 41.7301 -8.76301
115 1 11.6575 6.70231 44.2926 -8.75542
116 1 10.3709 4.45659 37.038 -8.0174
117 1 11.3372 4.47953 39.5766 -8.71966
118 1 12.272 4.46384 42.1305 -8.76356
119 1 11.9084 6.68918 37.3922 -8.64885
120 1 4.95682 4.46641 44.7216 -8.75444
121 1 5.86935 4.46696 47.3008 -8.75863
122 1 6.78244 4.46728 49.8833 -8.75952
123 1 7.69568 4.46744 52.4669 -8.75974
124 1 8.60929 4.46744 55.051 -8.75999
125 1 9.52291 4.46744 57.635 -8.75999
126 1 4.3453 6.70675 46.8694 -8.75693
127 1 5.2593 6.70579 49.4524 -8.75921
128 1 6.17299 6.70533 52.0362 -8.75977
129 1 7.08661 6.70533 54.6203 -8.75999
130 1 8.00022 6.70533 57.2044 -8.75999
131 1 4.6503 4.46744 51.6055 -8.75948
132 1 5.56392 4.46744 54.1896 -8.75999
133 1 6.47753 4.46744 56.7737 -8.75999
134 1 4.95484 6.70533 56.343 -8.75999
135 1 4.34577 4.46744 58.4964 -8.75999
136 1 5.25938 4.46744 61.0805 -8.75999
137 1 6.17299 4.46744 63.6646 -8.75999
138 1 7.08661 4.46744 66.2487 -8.75991
139 1 8.00022 4.46744 68.8328 -7.62235
140 1 4.6503 6.70533 63.2339 -8.75999
141 1 5.56392 6.70533 65.818 -8.75999
142 1 6.47753 6.70533 68.4021 -7.93439
143 1 5.86845 6.70533 58.9271 -8.75999
144 1 6.78207 6.70533 61.5112 -8.75999
145 1 7.69568 6.70533 64.0953 -8.75999
146 1 8.60929 6.70533 66.6794 -8.75991
147 1 9.52291 6.70533 69.2634 -7.62218
148 1 7.39114 4.46744 59.3578 -8.75999
149 1 8.30476 4.46744 61.9419 -8.75999
150 1 9.21837 4.46744 64.526 -8.75999
151 1 10.132 4.46744 67.11 -8.75991
152 1 11.0456 4.46744 69.6941 -7.32523
153 1 8.91383 6.70533 59.7885 -8.75999
154 1 9.82745 6.70533 62.3725 -8.75999
155 1 10.7411 6.70533 64.9566 -8.75999
156 1 11.6547 6.70533 67.5407 -8.75975
157 1 10.4365 4.46744 60.2191 -8.75999
158 1 11.3501 4.46744 62.8032 -8.75999
159 1 12.2637 4.46744 65.3873 -8.75999
160 1 11.9592 6.70533 60.6498 -8.75999
161 1 4.95484 4.46744 67.9714 -8.47822
162 1 4.34577 6.70533 70.1248 -6.41377
163 1 2.89601 8.97267 36.4367 -8.41364
164 1 5.31134 8.96344 37.9272 -8.60192
165 1 6.18001 8.95279 40.4222 -8.60545
166 1 7.08208 8.9482 42.9951 -8.72424
167 1 7.99837 8.94517 45.5768 -8.75326
168 1 8.91321 8.94383 48.1602 -8.75833
169 1 9.8272 8.94341 50.7442 -8.7596
170 1 10.7411 8.94321 53.3282 -8.76001
171 1 11.6547 8.94321 55.9123 -8.75999
172 1 4.65479 11.1915 39.9717 -8.81569
173 1 5.56671 11.1856 42.5541 -8.75711
174 1 6.47741 11.1829 45.1422 -8.76013
175 1 7.39071 11.1818 47.7283 -8.75985
176 1 8.30455 11.1813 50.3132 -8.7598
177 1 9.21837 11.1811 52.8976 -8.76009
178 1 10.132 11.1811 55.4816 -8.75999
179 1 11.0456 11.1811 58.0657 -8.75999
180 1 5.45551 10.5164 35.5879 -8.46805
181 1 6.79531 11.2182 38.1398 -8.78793
182 1 7.68759 11.2 40.8077 -8.68699
183 1 8.60637 11.1875 43.4145 -8.76352
184 1 9.52145 11.1836 46.0051 -8.76265
185 1 10.436 11.1819 48.5905 -8.76055
186 1 11.3501 11.1811 51.1748 -8.76006
187 1 12.2637 11.1811 53.7589 -8.75999
188 1 7.56967 8.99291 36.1959 -8.55631
189 1 8.32216 8.9557 38.7398 -8.6892
190 1 9.2139 8.93954 41.3083 -8.79229
191 1 10.1324 8.94532 43.8674 -8.75721
192 1 11.0459 8.94387 46.4419 -8.75695
193 1 11.9594 8.94341 49.0227 -8.75902
194 1 9.20338 11.3109 36.6064 -8.52451
195 1 9.8292 11.1438 39.1966 -8.44816
196 1 10.746 11.1903 41.7156 -8.70879
197 1 11.6547 11.1854 44.2882 -8.74946
198 1 10.4542 8.9171 37.0617 -8.29597
199 1 11.356 8.9227 39.6032 -8.73607
200 1 12.2693 8.94172 42.1508 -8.75136
201 1 11.9584 11.123 37.4447 -8.51117
202 1 4.95168 8.94605 44.7093 -8.76178
203 1 5.86735 8.9443 47.2973 -8.76059
204 1 6.78173 8.94357 49.8824 -8.76002
205 1 7.69568 8.94321 52.4669 -8.76002
206 1 8.60929 8.94321 55.051 -8.75999
207 1 9.52291 8.94321 57.635 -8.75999
208 1 4.3456 11.1809 46.8659 -8.76035
209 1 5.25921 11.1811 49.4515 -8.76024
210 1 6.17299 11.1811 52.0362 -8.7602
211 1 7.08661 11.1811 54.6203 -8.75999
212 1 8.00022 11.1811 57.2044 -8.75999
213 1 4.6503 8.94321 51.6055 -8.76024
214 1 5.56392 8.94321 54.1896 -8.75999
215 1 6.47753 8.94321 56.7737 -8.75999
216 1 4.95484 11.1811 56.343 -8.75999
217 1 4.34577 8.94321 58.4964 -8.75999
218 1 5.25938 8.94321 61.0805 -8.75999
219 1 6.17299 8.94321 63.6646 -8.75999
220 1 7.08661 8.94321 66.2487 -8.75991
221 1 8.00022 8.94321 68.8328 -7.62235
222 1 4.6503 11.1811 63.2339 -8.75999
223 1 5.56392 11.1811 65.818 -8.75999
224 1 6.47753 11.1811 68.4021 -7.93439
225 1 5.86845 11.1811 58.9271 -8.75999
226 1 6.78207 11.1811 61.5112 -8.75999
227 1 7.69568 11.1811 64.0953 -8.75999
228 1 8.60929 11.1811 66.6794 -8.75991
229 1 9.52291 11.1811 69.2634 -7.62218
230 1 7.39114 8.94321 59.3578 -8.75999
231 1 8.30476 8.94321 61.9419 -8.75999
232 1 9.21837 8.94321 64.526 -8.75999
233 1 10.132 8.94321 67.11 -8.75991
234 1 11.0456 8.94321 69.6941 -7.32523
235 1 8.91383 11.1811 59.7885 -8.75999
236 1 9.82745 11.1811 62.3725 -8.75999
237 1 10.7411 11.1811 64.9566 -8.75999
238 1 11.6547 11.1811 67.5407 -8.75975
239 1 10.4365 8.94321 60.2191 -8.75999
240 1 11.3501 8.94321 62.8032 -8.75999
241 1 12.2637 8.94321 65.3873 -8.75999
242 1 11.9592 11.1811 60.6498 -8.75999
243 1 4.95484 8.94321 67.9714 -8.47822
244 1 4.34577 11.1811 70.1248 -6.41377
245 1 13.5339 0.0118995 37.9272 -8.60192
246 1 14.4025 0.00124839 40.4222 -8.60545
247 1 15.3046 13.424 42.9951 -8.72424
248 1 16.2209 13.4209 45.5768 -8.75326
249 1 17.1357 13.4196 48.1602 -8.75833
250 1 18.0497 13.4192 50.7442 -8.7596
251 1 18.9636 13.419 53.3282 -8.76001
252 1 19.8772 13.419 55.9123 -8.75999
253 1 12.8773 2.23997 39.9717 -8.81569
254 1 13.7892 2.23405 42.5541 -8.75711
255 1 14.6999 2.2314 45.1422 -8.76013
256 1 15.6132 2.23023 47.7283 -8.75985
257 1 16.5271 2.22978 50.3132 -8.7598
258 1 17.4409 2.22955 52.8976 -8.76009
259 1 18.3545 2.22955 55.4816 -8.75999
260 1 19.2681 2.22955 58.0657 -8.75999
261 1 13.678 1.56485 35.5879 -8.46805
262 1 15.0178 2.26665 38.1398 -8.78793
263 1 15.9101 2.24845 40.8077 -8.68699
264 1 16.8289 2.23594 43.4145 -8.76351
265 1 17.744 2.23204 46.0051 -8.76265
266 1 18.6585 2.23039 48.5905 -8.76055
267 1 19.5727 2.22955 51.1748 -8.76006
268 1 20.4863 2.22955 53.7589 -8.75999
269 1 15.7922 0.0413632 36.1959 -8.55631
270 1 16.5447 0.00415106 38.7398 -8.6892
271 1 17.4364 13.4153 41.3083 -8.79229
272 1 18.3549 13.4211 43.8674 -8.75721
273 1 19.2685 13.4196 46.4419 -8.75695
274 1 20.1819 13.4192 49.0227 -8.75902
275 1 17.4259 2.3594 36.6064 -8.52451
276 1 18.0517 2.19222 39.1966 -8.44816
277 1 18.9685 2.23878 41.7156 -8.70879
278 1 19.8772 2.23383 44.2882 -8.74946
279 1 20.6682 0.210253 35.3283 -8.53783
280 1 19.5786 13.3985 39.6032 -8.73607
281 1 20.4918 13.4175 42.1508 -8.75136
282 1 20.1809 2.17146 37.4447 -8.51117
283 1 13.1742 13.4218 44.7093 -8.76178
284 1 14.0899 13.4201 47.2973 -8.76059
285 1 15.0042 13.4193 49.8824 -8.76002
286 1 15.9182 13.419 52.4669 -8.76002
287 1 16.8318 13.419 55.051 -8.75999
288 1 17.7454 13.419 57.635 -8.75999
289 1 12.5681 2.22939 46.8659 -8.76035
290 1 13.4817 2.22953 49.4515 -8.76024
291 1 14.3955 2.22955 52.0362 -8.7602
292 1 15.3091 2.22955 54.6203 -8.75999
293 1 16.2227 2.22955 57.2044 -8.75999
294 1 12.8728 13.419 51.6055 -8.76024
295 1 13.7864 13.419 54.1896 -8.75999
296 1 14.7 13.419 56.7737 -8.75999
297 1 13.1774 2.22955 56.343 -8.75999
298 1 12.5683 13.419 58.4964 -8.75999
299 1 13.4819 13.419 61.0805 -8.75999
300 1 14.3955 13.419 63.6646 -8.75999
301 1 15.3091 13.419 66.2487 -8.75991
302 1 16.2227 13.419 68.8328 -7.62235
303 1 12.8728 2.22955 63.2339 -8.75999
304 1 13.7864 2.22955 65.818 -8.75999
305 1 14.7 2.22955 68.4021 -7.93439
306 1 14.091 2.22955 58.9271 -8.75999
307 1 15.0046 2.22955 61.5112 -8.75999
308 1 15.9182 2.22955 64.0953 -8.75999
309 1 16.8318 2.22955 66.6794 -8.75991
310 1 17.7454 2.22955 69.2634 -7.62218
311 1 15.6137 13.419 59.3578 -8.75999
312 1 16.5273 13.419 61.9419 -8.75999
313 1 17.4409 13.419 64.526 -8.75999
314 1 18.3545 13.419 67.11 -8.75991
315 1 19.2681 13.419 69.6941 -7.32523
316 1 17.1364 2.22955 59.7885 -8.75999
317 1 18.05 2.22955 62.3725 -8.75999
318 1 18.9636 2.22955 64.9566 -8.75999
319 1 19.8772 2.22955 67.5407 -8.75975
320 1 18.659 13.419 60.2191 -8.75999
321 1 19.5727 13.419 62.8032 -8.75999
322 1 20.4863 13.419 65.3873 -8.75999
323 1 20.1817 2.22955 60.6498 -8.75999
324 1 13.1774 13.419 67.9714 -8.47822
325 1 12.5683 2.22955 70.1248 -6.41377
326 1 13.4647 4.4916 37.8518 -8.5061
327 1 14.429 4.46406 40.3693 -8.74514
328 1 15.3127 4.46761 42.9781 -8.76617
329 1 16.2229 4.46778 45.5711 -8.76203
330 1 17.1362 4.46766 48.1586 -8.76107
331 1 18.0499 4.46748 50.7438 -8.76047
332 1 18.9636 4.46744 53.3282 -8.7601
333 1 19.8772 4.46744 55.9123 -8.75999
334 1 12.875 6.69489 39.9902 -8.80811
335 1 13.7922 6.6992 42.56 -8.74723
336 1 14.7021 6.70292 45.1443 -8.76035
337 1 15.6144 6.70447 47.7289 -8.76054
338 1 16.5275 6.70504 50.3133 -8.76026
339 1 17.4409 6.70533 52.8976 -8.76001
340 1 18.3545 6.70533 55.4816 -8.75999
341 1 19.2681 6.70533 58.0657 -8.75999
342 1 13.9592 6.72044 35.7995 -8.48929
343 1 15.011 6.69123 38.2265 -8.39194
344 1 15.9138 6.69396 40.813 -8.65552
345 1 16.8314 6.70128 43.4118 -8.76044
346 1 17.7455 6.70396 46.0029 -8.76328
347 1 18.659 6.70492 48.5897 -8.76144
348 1 19.5727 6.70533 51.1748 -8.76051
349 1 20.4863 6.70533 53.7589 -8.75999
350 1 15.225 4.29256 35.7245 -8.87573
351 1 16.6226 4.47097 38.4685 -8.65256
352 1 17.4389 4.47104 41.2275 -8.81929
353 1 18.3523 4.46992 43.8429 -8.77824
354 1 19.2671 4.46866 46.4346 -8.76373
355 1 20.1813 4.4679 49.0207 -8.76074
356 1 18.5934 8.93236 37.038 -8.0174
357 1 18.0205 6.74061 39.1412 -8.53556
358 1 18.9638 6.70056 41.6926 -8.73912
359 1 19.8777 6.70405 44.2785 -8.75734
360 1 17.1327 6.63401 36.4798 -8.82104
361 1 19.5487 4.4741 39.4622 -8.78418
362 1 20.4793 4.47273 42.1088 -8.77103
363 1 20.1167 6.79123 37.4275 -8.40948
364 1 13.1799 4.4659 44.7132 -8.76111
365 1 14.0917 4.46689 47.298 -8.76067
366 1 15.0047 4.46725 49.8826 -8.7602
367 1 15.9182 4.46744 52.4669 -8.76012
368 1 16.8318 4.46744 55.051 -8.75999
369 1 17.7454 4.46744 57.635 -8.75999
370 1 12.5696 6.70413 46.8706 -8.75914
371 1 13.4824 6.7049 49.4528 -8.75983
372 1 14.3955 6.70533 52.0362 -8.75985
373 1 15.3091 6.70533 54.6203 -8.75999
374 1 16.2227 6.70533 57.2044 -8.75999
375 1 12.8728 4.46744 51.6055 -8.76017
376 1 13.7864 4.46744 54.1896 -8.75999
377 1 14.7 4.46744 56.7737 -8.75999
378 1 13.1774 6.70533 56.343 -8.75999
379 1 12.5683 4.46744 58.4964 -8.75999
380 1 13.4819 4.46744 61.0805 -8.75999
381 1 14.3955 4.46744 63.6646 -8.75999
382 1 15.3091 4.46744 66.2487 -8.75991
383 1 16.2227 4.46744 68.8328 -7.62235
384 1 12.8728 6.70533 63.2339 -8.75999
385 1 13.7864 6.70533 65.818 -8.75999
386 1 14.7 6.70533 68.4021 -7.93439
387 1 14.091 6.70533 58.9271 -8.75999
388 1 15.0046 6.70533 61.5112 -8.75999
389 1 15.9182 6.70533 64.0953 -8.75999
390 1 16.8318 6.70533 66.6794 -8.75991
391 1 17.7454 6.70533 69.2634 -7.62218
392 1 15.6137 4.46744 59.3578 -8.75999
393 1 16.5273 4.46744 61.9419 -8.75999
394 1 17.4409 4.46744 64.526 -8.75999
395 1 18.3545 4.46744 67.11 -8.75991
396 1 19.2681 4.46744 69.6941 -7.32523
397 1 17.1364 6.70533 59.7885 -8.75999
398 1 18.05 6.70533 62.3725 -8.75999
399 1 18.9636 6.70533 64.9566 -8.75999
400 1 19.8772 6.70533 67.5407 -8.75975
401 1 18.659 4.46744 60.2191 -8.75999
402 1 19.5727 4.46744 62.8032 -8.75999
403 1 20.4863 4.46744 65.3873 -8.75999
404 1 20.1817 6.70533 60.6498 -8.75999
405 1 13.1774 4.46744 67.9714 -8.47822
406 1 12.5683 6.70533 70.1248 -6.41377
407 1 12.4457 9.1618 35.3283 -8.53783
408 1 13.4665 8.90272 37.883 -8.58754
409 1 14.4011 8.94058 40.4145 -8.71423
410 1 15.3082 8.93872 42.9948 -8.74736
411 1 16.2234 8.94083 45.5767 -8.75965
412 1 17.1368 8.94236 48.1602 -8.76007
413 1 18.0501 8.94297 50.7442 -8.76016
414 1 18.9636 8.94321 53.3282 -8.75997
415 1 19.8772 8.94321 55.9123 -8.75999
416 1 12.8814 11.182 39.9947 -8.80864
417 1 13.787 11.1838 42.57 -8.76057
418 1 14.6992 11.1818 45.1492 -8.75639
419 1 15.6136 11.1813 47.7304 -8.7582
420 1 16.5273 11.1812 50.3137 -8.75947
421 1 17.4409 11.1811 52.8976 -8.75985
422 1 18.3545 11.1811 55.4816 -8.75999
423 1 19.2681 11.1811 58.0657 -8.75999
424 1 13.7398 11.8816 35.5858 -8.45481
425 1 14.9944 11.1791 38.175 -8.7808
426 1 15.9021 11.1764 40.8328 -8.75338
427 1 16.8264 11.1782 43.4292 -8.77361
428 1 17.7452 11.1799 46.0094 -8.761
429 1 18.6592 11.1807 48.5917 -8.75994
430 1 19.5727 11.1811 51.1748 -8.75992
431 1 20.4863 11.1811 53.7589 -8.75999
432 1 15.3552 9.10463 35.82 -8.90806
433 1 16.4713 8.93609 38.6272 -8.72382
434 1 17.4256 8.9405 41.2726 -8.81056
435 1 18.355 8.93825 43.8539 -8.76941
436 1 19.2688 8.94132 46.4375 -8.76182
437 1 20.182 8.94257 49.0215 -8.76055
438 1 18.6767 13.3929 37.0617 -8.29597
439 1 18.036 11.17 39.183 -8.7271
440 1 18.9629 11.1754 41.7301 -8.76301
441 1 19.88 11.1781 44.2926 -8.75542
442 1 17.2809 11.1788 36.6338 -8.3919
443 1 19.5597 8.9553 39.5766 -8.71966
444 1 20.4945 8.93961 42.1305 -8.76356
445 1 20.131 11.165 37.3922 -8.64885
446 1 13.1793 8.94218 44.7216 -8.75444
447 1 14.0919 8.94274 47.3008 -8.75863
448 1 15.005 8.94306 49.8833 -8.75952
449 1 15.9182 8.94321 52.4669 -8.75974
450 1 16.8318 8.94321 55.051 -8.75999
451 1 17.7454 8.94321 57.635 -8.75999
452 1 12.5678 11.1825 46.8694 -8.75693
453 1 13.4818 11.1816 49.4524 -8.75921
454 1 14.3955 11.1811 52.0362 -8.75977
455 1 15.3091 11.1811 54.6203 -8.75999
456 1 16.2227 11.1811 57.2044 -8.75999
457 1 12.8728 8.94321 51.6055 -8.75948
458 1 13.7864 8.94321 54.1896 -8.75999
459 1 14.7 8.94321 56.7737 -8.75999
460 1 13.1774 11.1811 56.343 -8.75999
461 1 12.5683 8.94321 58.4964 -8.75999
462 1 13.4819 8.94321 61.0805 -8.75999
463 1 14.3955 8.94321 63.6646 -8.75999
464 1 15.3091 8.94321 66.2487 -8.75991
465 1 16.2227 8.94321 68.8328 -7.62235
466 1 12.8728 11.1811 63.2339 -8.75999
467 1 13.7864 11.1811 65.818 -8.75999
468 1 14.7 11.1811 68.4021 -7.93439
469 1 14.091 11.1811 58.9271 -8.75999
470 1 15.0046 11.1811 61.5112 -8.75999
471 1 15.9182 11.1811 64.0953 -8.75999
472 1 16.8318 11.1811 66.6794 -8.75991
473 1 17.7454 11.1811 69.2634 -7.62218
474 1 15.6137 8.94321 59.3578 -8.75999
475 1 16.5273 8.94321 61.9419 -8.75999
476 1 17.4409 8.94321 64.526 -8.75999
477 1 18.3545 8.94321 67.11 -8.75991
478 1 19.2681 8.94321 69.6941 -7.32523
479 1 17.1364 11.1811 59.7885 -8.75999
480 1 18.05 11.1811 62.3725 -8.75999
481 1 18.9636 11.1811 64.9566 -8.75999
482 1 19.8772 11.1811 67.5407 -8.75975
483 1 18.659 8.94321 60.2191 -8.75999
484 1 19.5727 8.94321 62.8032 -8.75999
485 1 20.4863 8.94321 65.3873 -8.75999
486 1 20.1817 11.1811 60.6498 -8.75999
487 1 13.1774 8.94321 67.9714 -8.47822
488 1 12.5683 11.1811 70.1248 -6.41377
489 1 21.689 13.3785 37.883 -8.58754
490 1 22.6237 13.4164 40.4145 -8.71423
491 1 23.5307 13.4145 42.9948 -8.74736
492 1 24.4459 13.4166 45.5767 -8.75965
493 1 0.691734 13.4181 48.1602 -8.76007
494 1 1.60505 13.4187 50.7442 -8.76016
495 1 2.51854 13.419 53.3282 -8.75997
496 1 3.43215 13.419 55.9123 -8.75999
497 1 21.1039 2.23043 39.9947 -8.80864
498 1 22.0095 2.23221 42.57 -8.76057
499 1 22.9217 2.23031 45.1492 -8.75639
500 1 23.8362 2.22972 47.7304 -8.7582
501 1 0.0822314 2.22961 50.3137 -8.75947
502 1 0.995851 2.22955 52.8976 -8.75985
503 1 1.90946 2.22955 55.4816 -8.75999
504 1 2.82308 2.22955 58.0657 -8.75999
505 1 21.9623 2.93003 35.5858 -8.45481
506 1 23.217 2.22759 38.175 -8.7808
507 1 24.1246 2.22483 40.8328 -8.75338
508 1 0.381345 2.22669 43.4292 -8.77361
509 1 1.30017 2.22833 46.0094 -8.761
510 1 2.21413 2.22912 48.5917 -8.75994
511 1 3.12762 2.22955 51.1748 -8.75992
512 1 4.04123 2.22955 53.7589 -8.75999
513 1 23.5777 0.153085 35.82 -8.90806
514 1 0.0262562 13.4119 38.6272 -8.72382
515 1 0.98059 13.4163 41.2726 -8.81056
516 1 1.90996 13.414 43.8539 -8.76941
517 1 2.8238 13.4171 46.4375 -8.76182
518 1 3.73698 13.4183 49.0215 -8.76055
519 1 0.835859 2.22723 36.6338 -8.3919
520 1 1.59093 2.2185 39.183 -8.7271
521 1 2.51787 2.22387 41.7301 -8.76301
522 1 3.43498 2.22653 44.2926 -8.75542
523 1 4.15186 13.2507 35.3052 -8.52883
524 1 3.11471 0.00375559 39.5766 -8.71966
525 1 4.04946 13.4154 42.1305 -8.76356
526 1 3.68592 2.21341 37.3922 -8.64885
527 1 21.4019 13.418 44.7216 -8.75444
528 1 22.3144 13.4185 47.3008 -8.75863
529 1 23.2275 13.4188 49.8833 -8.75952
530 1 24.1407 13.419 52.4669 -8.75974
531 1 0.386776 13.419 55.051 -8.75999
532 1 1.30039 13.419 57.635 -8.75999
533 1 20.7903 2.23098 46.8694 -8.75693
534 1 21.7043 2.23001 49.4524 -8.75921
535 1 22.618 2.22955 52.0362 -8.75977
536 1 23.5316 2.22955 54.6203 -8.75999
537 1 24.4453 2.22955 57.2044 -8.75999
538 1 21.0953 13.419 51.6055 -8.75948
539 1 22.009 13.419 54.1896 -8.75999
540 1 22.9226 13.419 56.7737 -8.75999
541 1 21.3999 2.22955 56.343 -8.75999
542 1 20.7908 13.419 58.4964 -8.75999
543 1 21.7044 13.419 61.0805 -8.75999
544 1 22.618 13.419 63.6646 -8.75999
545 1 23.5316 13.419 66.2487 -8.75991
546 1 24.4453 13.419 68.8328 -7.62235
547 1 21.0953 2.22955 63.2339 -8.75999
548 1 22.009 2.22955 65.818 -8.75999
549 1 22.9226 2.22955 68.4021 -7.93439
550 1 22.3135 2.22955 58.9271 -8.75999
551 1 23.2271 2.22955 61.5112 -8.75999
552 1 24.1407 2.22955 64.0953 -8.75999
553 1 0.386776 2.22955 66.6794 -8.75991
554 1 1.30039 2.22955 69.2634 -7.62218
555 1 23.8362 13.419 59.3578 -8.75999
556 1 0.0822378 13.419 61.9419 -8.75999
557 1 0.995851 13.419 64.526 -8.75999
558 1 1.90946 13.419 67.11 -8.75991
559 1 2.82308 13.419 69.6941 -7.32523
560 1 0.691313 2.22955 59.7885 -8.75999
561 1 1.60493 2.22955 62.3725 -8.75999
562 1 2.51854 2.22955 64.9566 -8.75999
563 1 3.43215 2.22955 67.5407 -8.75975
564 1 2.214 13.419 60.2191 -8.75999
565 1 3.12762 13.419 62.8032 -8.75999
566 1 4.04123 13.419 65.3873 -8.75999
567 1 3.73669 2.22955 60.6498 -8.75999
568 1 21.3999 13.419 67.9714 -8.47822
569 1 20.7908 2.22955 70.1248 -6.41377
570 1 21.7564 4.48767 37.9272 -8.60192
571 1 22.6251 4.47702 40.4222 -8.60545
572 1 23.5271 4.47243 42.9951 -8.72424
573 1 24.4434 4.4694 45.5768 -8.75326
574 1 0.690695 4.46806 48.1602 -8.75833
575 1 1.60468 4.46764 50.7442 -8.75961
576 1 2.51854 4.46744 53.3282 -8.76001
577 1 3.43215 4.46744 55.9123 -8.75999
578 1 21.0998 6.71574 39.9717 -8.81569
579 1 22.0117 6.70982 42.5541 -8.75711
580 1 22.9224 6.70717 45.1422 -8.76013
581 1 23.8357 6.70601 47.7283 -8.75985
582 1 0.0820315 6.70555 50.3132 -8.7598
583 1 0.995851 6.70533 52.8976 -8.76009
584 1 1.90946 6.70533 55.4816 -8.75999
585 1 2.82308 6.70533 58.0657 -8.75999
586 1 21.9005 6.04062 35.5879 -8.46805
587 1 23.2403 6.74242 38.1398 -8.78793
588 1 24.1326 6.72422 40.8078 -8.68699
589 1 0.383854 6.71172 43.4145 -8.76352
590 1 1.29894 6.70781 46.0051 -8.76265
591 1 2.21344 6.70616 48.5905 -8.76055
592 1 3.12762 6.70533 51.1748 -8.76006
593 1 4.04123 6.70533 53.7589 -8.75999
594 1 24.0147 4.51714 36.1959 -8.55631
595 1 0.0996455 4.47992 38.7398 -8.6892
596 1 0.991383 4.46377 41.3083 -8.79229
597 1 1.90988 4.46955 43.8674 -8.75721
598 1 2.82341 4.46809 46.4419 -8.75695
599 1 3.73685 4.46764 49.0227 -8.75902
600 1 0.98086 6.83517 36.6064 -8.52451
601 1 1.60668 6.66799 39.1966 -8.44816
602 1 2.52349 6.71456 41.7156 -8.70879
603 1 3.43214 6.7096 44.2882 -8.74946
604 1 2.23166 4.44133 37.0617 -8.29597
605 1 3.13353 4.44693 39.6032 -8.73607
606 1 4.04676 4.46595 42.1508 -8.75136
607 1 3.73588 6.64723 37.4447 -8.51117
608 1 21.3967 4.47028 44.7093 -8.76178
609 1 22.3124 4.46852 47.2973 -8.76059
610 1 23.2268 4.46779 49.8824 -8.76002
611 1 24.1407 4.46744 52.4669 -8.76002
612 1 0.386776 4.46744 55.051 -8.75999
613 1 1.30039 4.46744 57.635 -8.75999
614 1 20.7906 6.70516 46.8659 -8.76035
615 1 21.7042 6.70531 49.4515 -8.76024
616 1 22.618 6.70533 52.0362 -8.7602
617 1 23.5316 6.70533 54.6203 -8.75999
618 1 24.4453 6.70533 57.2044 -8.75999
619 1 21.0953 4.46744 51.6055 -8.76024
620 1 22.009 4.46744 54.1896 -8.75999
621 1 22.9226 4.46744 56.7737 -8.75999
622 1 21.3999 6.70533 56.343 -8.75999
623 1 20.7908 4.46744 58.4964 -8.75999
624 1 21.7044 4.46744 61.0805 -8.75999
625 1 22.618 4.46744 63.6646 -8.75999
626 1 23.5316 4.46744 66.2487 -8.75991
627 1 24.4453 4.46744 68.8328 -7.62235
628 1 21.0953 6.70533 63.2339 -8.75999
629 1 22.009 6.70533 65.818 -8.75999
630 1 22.9226 6.70533 68.4021 -7.93439
631 1 22.3135 6.70533 58.9271 -8.75999
632 1 23.2271 6.70533 61.5112 -8.75999
633 1 24.1407 6.70533 64.0953 -8.75999
634 1 0.386776 6.70533 66.6794 -8.75991
635 1 1.30039 6.70533 69.2634 -7.62218
636 1 23.8362 4.46744 59.3578 -8.75999
637 1 0.0822378 4.46744 61.9419 -8.75999
638 1 0.995851 4.46744 64.526 -8.75999
639 1 1.90946 4.46744 67.11 -8.75991
640 1 2.82308 4.46744 69.6941 -7.32523
641 1 0.691313 6.70533 59.7885 -8.75999
642 1 1.60493 6.70533 62.3725 -8.75999
643 1 2.51854 6.70533 64.9566 -8.75999
644 1 3.43215 6.70533 67.5407 -8.75975
645 1 2.214 4.46744 60.2191 -8.75999
646 1 3.12762 4.46744 62.8032 -8.75999
647 1 4.04123 4.46744 65.3873 -8.75999
648 1 3.73669 6.70533 60.6498 -8.75999
649 1 21.3999 4.46744 67.9714 -8.47822
650 1 20.7908 6.70533 70.1248 -6.41377
651 1 20.5969 8.77495 35.3052 -8.52883
652 1 21.6872 8.96737 37.8518 -8.5061
653 1 22.6515 8.93983 40.3693 -8.74514
654 1 23.5352 8.94338 42.9781 -8.76617
655 1 24.4454 8.94356 45.5711 -8.76203
656 1 0.691119 8.94343 48.1586 -8.76107
657 1 1.60489 8.94326 50.7438 -8.76047
658 1 2.51854 8.94321 53.3282 -8.7601
659 1 3.43215 8.94321 55.9123 -8.75999
660 1 21.0975 11.1707 39.9902 -8.80811
661 1 22.0147 11.175 42.56 -8.74723
662 1 22.9246 11.1787 45.1443 -8.76035
663 1 23.8369 11.1802 47.7289 -8.76054
664 1 0.0824775 11.1808 50.3133 -8.76026
665 1 0.995851 11.1811 52.8976 -8.76001
666 1 1.90946 11.1811 55.4816 -8.75999
667 1 2.82308 11.1811 58.0657 -8.75999
668 1 22.1817 11.1962 35.7995 -8.48929
669 1 23.2335 11.167 38.2265 -8.39194
670 1 24.1363 11.1697 40.813 -8.65552
671 1 0.386402 11.1771 43.4118 -8.76044
672 1 1.30046 11.1797 46.0029 -8.76328
673 1 2.214 11.1807 48.5897 -8.76144
674 1 3.12762 11.1811 51.1748 -8.76051
675 1 4.04123 11.1811 53.7589 -8.75999
676 1 23.4476 8.76833 35.7245 -8.87573
677 1 0.177532 8.94674 38.4685 -8.65256
678 1 0.993885 8.94681 41.2275 -8.81929
679 1 1.90724 8.94569 43.8429 -8.77824
680 1 2.82203 8.94443 46.4346 -8.76373
681 1 3.73629 8.94367 49.0207 -8.76074
682 1 2.14836 13.4081 37.038 -8.0174
683 1 1.57548 11.2164 39.1412 -8.53556
684 1 2.51877 11.1763 41.6926 -8.73912
685 1 3.4327 11.1798 44.2785 -8.75734
686 1 0.68767 11.1098 36.4798 -8.82104
687 1 3.10369 8.94987 39.4622 -8.78418
688 1 4.03429 8.94851 42.1088 -8.77103
689 1 3.6717 11.267 37.4275 -8.40948
690 1 21.4024 8.94167 44.7132 -8.76111
691 1 22.3142 8.94266 47.298 -8.76067
692 1 23.2273 8.94302 49.8826 -8.7602
693 1 24.1407 8.94321 52.4669 -8.76012
694 1 0.386776 8.94321 55.051 -8.75999
695 1 1.30039 8.94321 57.635 -8.75999
696 1 20.7921 11.1799 46.8706 -8.75913
697 1 21.7049 11.1807 49.4528 -8.75983
698 1 22.618 11.1811 52.0362 -8.75985
699 1 23.5316 11.1811 54.6203 -8.75999
700 1 24.4453 11.1811 57.2044 -8.75999
701 1 21.0953 8.94321 51.6055 -8.76017
702 1 22.009 8.94321 54.1896 -8.75999
703 1 22.9226 8.94321 56.7737 -8.75999
704 1 21.3999 11.1811 56.343 -8.75999
705 1 20.7908 8.94321 58.4964 -8.75999
706 1 21.7044 8.94321 61.0805 -8.75999
707 1 22.618 8.94321 63.6646 -8.75999
708 1 23.5316 8.94321 66.2487 -8.75991
709 1 24.4453 8.94321 68.8328 -7.62235
710 1 21.0953 11.1811 63.2339 -8.75999
711 1 22.009 11.1811 65.818 -8.75999
712 1 22.9226 11.1811 68.4021 -7.93439
713 1 22.3135 11.1811 58.9271 -8.75999
714 1 23.2271 11.1811 61.5112 -8.75999
715 1 24.1407 11.1811 64.0953 -8.75999
716 1 0.386776 11.1811 66.6794 -8.75991
717 1 1.30039 11.1811 69.2634 -7.62218
718 1 23.8362 8.94321 59.3578 -8.75999
719 1 0.0822378 8.94321 61.9419 -8.75999
720 1 0.995851 8.94321 64.526 -8.75999
721 1 1.90946 8.94321 67.11 -8.75991
722 1 2.82308 8.94321 69.6941 -7.32523
723 1 0.691313 11.1811 59.7885 -8.75999
724 1 1.60493 11.1811 62.3725 -8.75999
725 1 2.51854 11.1811 64.9566 -8.75999
726 1 3.43215 11.1811 67.5407 -8.75975
727 1 2.214 8.94321 60.2191 -8.75999
728 1 3.12762 8.94321 62.8032 -8.75999
729 1 4.04123 8.94321 65.3873 -8.75999
730 1 3.73669 11.1811 60.6498 -8.75999
731 1 21.3999 8.94321 67.9714 -8.47822
732 1 20.7908 11.1811 70.1248 -6.41377
733 1 0 0.005 5e-05 -6.41377
734 1 2.13176 0.005 1.72278 -7.93439
735 1 4.26353 0.005 3.4455 -8.75991
736 1 6.39529 0.005 5.16823 -8.75999
737 1 3.65445 2.24289 1.29209 -7.62235
738 1 5.78622 2.24289 3.01482 -8.75991
739 1 7.91798 2.24289 4.73755 -8.75999
740 1 0.609075 2.24289 2.15346 -8.47822
741 1 2.74084 2.24289 3.87618 -8.75991
742 1 4.8726 2.24289 5.59891 -8.75999
743 1 7.00437 2.24289 7.32163 -8.75999
744 1 1.21815 0.005 4.30686 -8.75999
745 1 3.34992 0.005 6.02959 -8.75999
746 1 5.48168 0.005 7.75232 -8.75999
747 1 7.61344 0.005 9.47504 -8.75999
748 1 1.82723 2.24289 6.46027 -8.75999
749 1 3.95899 2.24289 8.183 -8.75999
750 1 6.09075 2.24289 9.90572 -8.75999
751 1 0.304538 0.005 6.89095 -8.75999
752 1 2.4363 0.005 8.61368 -8.75999
753 1 4.56807 0.005 10.3364 -8.75999
754 1 6.69983 0.005 12.0591 -8.75999
755 1 0.913613 2.24289 9.04436 -8.75999
756 1 3.04538 2.24289 10.7671 -8.75999
757 1 5.17714 2.24289 12.4898 -8.75999
758 1 7.30891 2.24289 14.2125 -8.75999
759 1 1.52269 0.005 11.1978 -8.75999
760 1 3.65445 0.005 12.9205 -8.75999
761 1 5.78622 0.005 14.6432 -8.75999
762 1 7.91798 0.005 16.3659 -8.75999
763 1 0 2.24289 11.6284 -8.75999
764 1 2.13176 2.24289 13.3512 -8.75999
765 1 4.26353 2.24289 15.0739 -8.75999
766 1 6.39529 2.24289 16.7966 -8.76011
767 1 0.609075 0.005 13.7819 -8.75999
768 1 2.74084 0.005 15.5046 -8.75999
769 1 4.8726 0.005 17.2273 -8.75989
770 1 7.00437 0.005 18.95 -8.75962
771 1 1.21815 2.24289 15.9353 -8.75999
772 1 3.34992 2.24289 17.658 -8.76046
773 1 5.48153 2.24319 19.3811 -8.75955
774 1 7.61281 2.24357 21.1035 -8.75868