ITEM: TIMESTEP
0
ITEM: NUMBER OF ATOMS
278
ITEM: BOX BOUNDS pp pp ss
0.0000000000000000e+00 8.5870068723042259e+00
0.0000000000000000e+00 8.5870068723042259e+00
-7.4115936535697488e-03 7.4463094887121130e+01
ITEM: ATOMS id type x y z c_eng
1 1 1.85963 3.77023 37.8509 -4.13517
2 1 3.11571 5.75953 38.4589 -4.08838
3 1 6.72738 4.82678 37.8509 -4.13517
4 1 8.05874 6.15813 39.3203 -4.13517
5 1 1.46103 7.41421 38.7123 -4.08838
6 1 3.03749e-06 4.2985 40.6568 -4.24994
7 1 1.7837 5.07311 41.949 -4.27346
8 1 3.76173 5.36137 40.6843 -4.2251
9 1 5.20898 6.91821 41.7626 -4.18705
10 1 6.91598 7.9126 40.3653 -4.11895
11 1 3.11698e-06 0.00499789 41.8837 -4.25662
12 1 1.67103 0.684401 40.3653 -4.11895
13 1 3.37803 1.67879 41.7626 -4.18705
14 1 7.12598 1.1828 38.7123 -4.08838
15 1 7.52414 0.536772 36.4869 -4.2251
16 1 0.528277 2.43888 39.3203 -4.13517
17 1 4.82528 3.23564 40.6843 -4.2251
18 1 6.80331 3.5239 41.949 -4.27346
19 1 2.5698 3.33258 43.2684 -4.26803
20 1 4.29351 4.2985 44.5784 -4.32206
21 1 6.01721 5.26442 43.2684 -4.26803
22 1 7.76628 6.04758 44.6065 -4.33124
23 1 0.898936 6.86447 43.2226 -4.31225
24 1 2.60518 7.73689 44.5671 -4.33271
25 1 3.0638e-06 4.2985 45.9492 -4.33574
26 1 1.72105 5.15588 47.3008 -4.33624
27 1 3.4371 6.01441 45.9381 -4.33486
28 1 5.1536 6.87597 47.2976 -4.33651
29 1 6.86832 7.75207 45.9451 -4.33387
30 1 3.13105e-06 0.00499757 47.3079 -4.3355
31 1 1.7187 0.844931 45.9451 -4.33387
32 1 3.43341 1.72103 47.2976 -4.33651
33 1 4.29351 0.00499792 43.1536 -4.30403
34 1 5.98184 0.860111 44.5671 -4.33271
35 1 7.68808 1.73254 43.2226 -4.31225
36 1 0.820732 2.54942 44.6065 -4.33124
37 1 5.14992 2.58259 45.9381 -4.33486
38 1 6.86596 3.44112 47.3008 -4.33624
39 1 2.5769 3.43787 48.658 -4.33657
40 1 4.29351 4.2985 50.0158 -4.33659
41 1 6.01011 5.15913 48.658 -4.33657
42 1 7.72791 6.01534 50.0169 -4.33659
43 1 0.859597 6.87178 48.6602 -4.33654
44 1 2.5768 7.73293 50.0163 -4.33659
45 1 2.77577e-06 4.2985 51.3748 -4.3366
46 1 1.71758 5.15728 52.7321 -4.3366
47 1 3.43509 6.01563 51.3742 -4.3366
48 1 5.15233 6.87464 52.7319 -4.3366
49 1 6.8695 7.73356 51.374 -4.3366
50 1 2.88832e-06 0.00499696 52.7318 -4.3366
51 1 1.71751 0.863443 51.374 -4.3366
52 1 3.43468 1.72236 52.7319 -4.3366
53 1 4.29351 0.00499751 48.6571 -4.33656
54 1 6.01022 0.864072 50.0163 -4.33659
55 1 7.72742 1.72523 48.6602 -4.33654
56 1 0.859103 2.58166 50.0169 -4.33659
57 1 5.15193 2.58137 51.3742 -4.3366
58 1 6.86943 3.43972 52.7321 -4.3366
59 1 2.5761 3.43976 54.0898 -4.3366
60 1 4.29351 4.2985 55.4475 -4.3366
61 1 6.01091 5.15724 54.0898 -4.3366
62 1 7.72835 6.01593 55.4475 -4.3366
63 1 0.858714 6.87469 54.0897 -4.3366
64 1 2.57613 7.73332 55.4474 -4.3366
65 1 2.53185e-06 4.2985 56.8052 -4.3366
66 1 1.7174 5.1572 58.1629 -4.3366
67 1 3.43481 6.0159 56.8052 -4.3366
68 1 5.15221 6.8746 58.1629 -4.3366
69 1 6.86961 7.7333 56.8052 -4.3366
70 1 2.53185e-06 0.00499671 58.1629 -4.3366
71 1 1.7174 0.863697 56.8052 -4.3366
72 1 3.43481 1.7224 58.1629 -4.3366
73 1 4.29351 0.00499689 54.0896 -4.3366
74 1 6.01089 0.863677 55.4474 -4.3366
75 1 7.7283 1.72231 54.0897 -4.3366
76 1 0.858664 2.58107 55.4475 -4.3366
77 1 5.15221 2.5811 56.8052 -4.3366
78 1 6.86961 3.4398 58.1629 -4.3366
79 1 2.5761 3.4398 59.5207 -4.3366
80 1 4.29351 4.2985 60.8784 -4.3366
81 1 6.01091 5.1572 59.5207 -4.3366
82 1 7.72831 6.0159 60.8784 -4.3366
83 1 0.858703 6.8746 59.5207 -4.3366
84 1 2.5761 7.7333 60.8784 -4.3366
85 1 2.53185e-06 4.2985 62.2361 -4.3366
86 1 1.7174 5.1572 63.5938 -4.3366
87 1 3.43481 6.0159 62.2361 -4.3366
88 1 5.15221 6.8746 63.5938 -4.3366
89 1 6.86961 7.7333 62.2361 -4.3366
90 1 2.53185e-06 0.00499671 63.5938 -4.3366
91 1 1.7174 0.863697 62.2361 -4.3366
92 1 3.43481 1.7224 63.5938 -4.3366
93 1 4.29351 0.00499671 59.5207 -4.3366
94 1 6.01091 0.863697 60.8784 -4.3366
95 1 7.72831 1.7224 59.5207 -4.3366
96 1 0.858703 2.5811 60.8784 -4.3366
97 1 5.15221 2.5811 62.2361 -4.3366
98 1 6.86961 3.4398 63.5938 -4.3366
99 1 2.5761 3.4398 64.9516 -4.3366
100 1 4.29351 4.2985 66.3093 -4.3366
101 1 6.01091 5.1572 64.9516 -4.3366
102 1 7.72831 6.0159 66.3093 -4.3366
103 1 0.858703 6.8746 64.9516 -4.3366
104 1 2.5761 7.7333 66.3093 -4.3366
105 1 2.53185e-06 4.2985 67.667 -4.3366
106 1 1.7174 5.1572 69.0247 -4.3366
107 1 3.43481 6.0159 67.667 -4.3366
108 1 5.15221 6.8746 69.0247 -4.3366
109 1 6.86961 7.7333 67.667 -4.3366
110 1 2.53185e-06 0.00499671 69.0247 -4.3366
111 1 1.7174 0.863697 67.667 -4.3366
112 1 3.43481 1.7224 69.0247 -4.3366
113 1 4.29351 0.00499671 64.9516 -4.3366
114 1 6.01091 0.863697 66.3093 -4.3366
115 1 7.72831 1.7224 64.9516 -4.3366
116 1 0.858703 2.5811 66.3093 -4.3366
117 1 5.15221 2.5811 67.667 -4.3366
118 1 6.86961 3.4398 69.0247 -4.3366
119 1 2.5761 3.4398 70.3825 -4.3366
120 1 4.29351 4.2985 71.7402 -4.3366
121 1 6.01091 5.1572 70.3825 -4.3366
122 1 7.72831 6.0159 71.7402 -4.3366
123 1 0.858703 6.8746 70.3825 -4.3366
124 1 2.5761 7.7333 71.7402 -4.3366
125 1 2.53185e-06 4.2985 73.0979 -4.3366
126 1 1.7174 5.1572 74.4556 -2.1683
127 1 3.43481 6.0159 73.0979 -4.3366
128 1 5.15221 6.8746 74.4556 -2.1683
129 1 6.86961 7.7333 73.0979 -4.3366
130 1 2.53185e-06 0.00499671 74.4556 -2.1683
131 1 1.7174 0.863697 73.0979 -4.3366
132 1 3.43481 1.7224 74.4556 -2.1683
133 1 4.29351 0.00499671 70.3825 -4.3366
134 1 6.01091 0.863697 71.7402 -4.3366
135 1 7.72831 1.7224 70.3825 -4.3366
136 1 0.858703 2.5811 71.7402 -4.3366
137 1 5.15221 2.5811 73.0979 -4.3366
138 1 6.86961 3.4398 74.4556 -2.1683
139 1 0 0.005 5e-05 -2.1683
140 1 0.858701 1.7224 1.35778 -4.3366
141 1 1.7174 3.4398 5e-05 -2.1683
142 1 2.5761 5.1572 1.35778 -4.3366
143 1 3.4348 6.87461 5e-05 -2.1683
144 1 4.2935 0.005 1.35778 -4.3366
145 1 2.5761 0.863701 2.7155 -4.3366
146 1 3.4348 2.5811 4.07322 -4.3366
147 1 4.2935 4.2985 2.7155 -4.3366
148 1 5.1522 6.0159 4.07322 -4.3366
149 1 6.0109 7.73331 2.7155 -4.3366
150 1 6.86961 0.863701 4.07322 -4.3366
151 1 0.858701 6.0159 2.7155 -4.3366
152 1 1.7174 7.73331 4.07322 -4.3366
153 1 5.1522 1.7224 5e-05 -2.1683
154 1 6.0109 3.4398 1.35778 -4.3366
155 1 6.86961 5.1572 5e-05 -2.1683
156 1 7.72831 6.87461 1.35778 -4.3366
157 1 7.72831 2.5811 2.7155 -4.3366
158 1 5.01367e-16 4.2985 4.07322 -4.3366
159 1 0 0.005 5.43095 -4.3366
160 1 0.858701 1.7224 6.78868 -4.3366
161 1 1.7174 3.4398 5.43095 -4.3366
162 1 2.5761 5.1572 6.78868 -4.3366
163 1 3.4348 6.87461 5.43095 -4.3366
164 1 4.2935 0.005 6.78868 -4.3366
165 1 2.5761 0.863701 8.1464 -4.3366
166 1 3.4348 2.5811 9.50413 -4.3366
167 1 4.2935 4.2985 8.1464 -4.3366
168 1 5.1522 6.0159 9.50413 -4.3366
169 1 6.0109 7.73331 8.1464 -4.3366
170 1 6.86961 0.863701 9.50413 -4.3366
171 1 0.858701 6.0159 8.1464 -4.3366
172 1 1.7174 7.73331 9.50413 -4.3366
173 1 5.1522 1.7224 5.43095 -4.3366
174 1 6.0109 3.4398 6.78868 -4.3366
175 1 6.86961 5.1572 5.43095 -4.3366
176 1 7.72831 6.87461 6.78868 -4.3366
177 1 7.72831 2.5811 8.1464 -4.3366
178 1 5.01367e-16 4.2985 9.50413 -4.3366
179 1 0 0.005 10.8619 -4.3366
180 1 0.858701 1.7224 12.2196 -4.3366
181 1 1.7174 3.4398 10.8619 -4.3366
182 1 2.5761 5.1572 12.2196 -4.3366
183 1 3.4348 6.87461 10.8619 -4.3366
184 1 4.2935 0.005 12.2196 -4.3366
185 1 2.5761 0.863701 13.5773 -4.3366
186 1 3.4348 2.5811 14.935 -4.3366
187 1 4.2935 4.2985 13.5773 -4.3366
188 1 5.1522 6.0159 14.935 -4.3366
189 1 6.0109 7.73331 13.5773 -4.3366
190 1 6.86961 0.863701 14.935 -4.3366
191 1 0.858701 6.0159 13.5773 -4.3366
192 1 1.7174 7.73331 14.935 -4.3366
193 1 5.1522 1.7224 10.8619 -4.3366
194 1 6.0109 3.4398 12.2196 -4.3366
195 1 6.86961 5.1572 10.8619 -4.3366
196 1 7.72831 6.87461 12.2196 -4.3366
197 1 7.72831 2.5811 13.5773 -4.3366
198 1 5.01367e-16 4.2985 14.935 -4.3366
199 1 0 0.005 16.2928 -4.3366
200 1 0.858701 1.7224 17.6505 -4.3366
201 1 1.7174 3.4398 16.2928 -4.3366
202 1 2.5761 5.1572 17.6505 -4.3366
203 1 3.4348 6.87461 16.2928 -4.3366
204 1 4.2935 0.005 17.6505 -4.3366
205 1 2.5761 0.863699 19.0082 -4.3366
206 1 3.4348 2.5811 20.366 -4.3366
207 1 4.2935 4.2985 19.0082 -4.3366
208 1 5.15221 6.0159 20.366 -4.3366
209 1 6.01091 7.73331 19.0082 -4.3366
210 1 6.86959 0.863709 20.366 -4.3366
211 1 0.858701 6.0159 19.0082 -4.3366
212 1 1.71742 7.7333 20.366 -4.3366
213 1 5.1522 1.7224 16.2928 -4.3366
214 1 6.0109 3.4398 17.6505 -4.3366
215 1 6.86961 5.1572 16.2928 -4.3366
216 1 7.72831 6.87461 17.6505 -4.3366
217 1 7.72831 2.5811 19.0082 -4.3366
218 1 4.9931e-07 4.2985 20.366 -4.3366
219 1 6.46247e-07 0.00499992 21.7237 -4.3366
220 1 0.858741 1.7224 23.0814 -4.3366
221 1 1.71743 3.43984 21.7237 -4.3366
222 1 2.57619 5.15721 23.0815 -4.3366
223 1 3.43483 6.87462 21.7237 -4.3366
224 1 4.2935 0.00499988 23.0815 -4.3366
225 1 2.57614 0.863826 24.4393 -4.3366
226 1 3.43506 2.58099 25.7972 -4.3366
227 1 4.2935 4.2985 24.4394 -4.3366
228 1 5.15195 6.01601 25.7972 -4.3366
229 1 6.01087 7.73318 24.4393 -4.3366
230 1 6.86988 0.863419 25.797 -4.3366
231 1 0.858783 6.01609 24.4391 -4.3366
232 1 1.71713 7.73359 25.797 -4.3366
233 1 5.15218 1.72238 21.7237 -4.3366
234 1 6.01082 3.43979 23.0815 -4.3366
235 1 6.86958 5.15717 21.7237 -4.3366
236 1 7.72827 6.8746 23.0814 -4.3366
237 1 7.72823 2.58092 24.4391 -4.3366
238 1 1.39196e-06 4.2985 25.7964 -4.3366
239 1 1.49443e-06 0.00499958 27.1554 -4.33659
240 1 0.860634 1.7216 28.5132 -4.33657
241 1 1.71684 3.4394 27.1542 -4.33659
242 1 2.57328 5.1581 28.511 -4.33654
243 1 3.43443 6.8753 27.1549 -4.33659
244 1 4.29351 0.00499941 28.514 -4.33656
245 1 2.57747 0.865095 29.8736 -4.33651
246 1 3.45357 2.57981 31.2261 -4.33387
247 1 4.29351 4.2985 29.8633 -4.3355
248 1 5.13344 6.0172 31.2261 -4.33387
249 1 6.00954 7.73191 29.8736 -4.33651
250 1 6.8711 0.861408 31.2331 -4.33486
251 1 0.857382 6.01955 29.8703 -4.33624
252 1 1.71591 7.7356 31.2331 -4.33486
253 1 5.15258 1.72171 27.1549 -4.33659
254 1 6.01373 3.43891 28.511 -4.33654
255 1 6.87017 5.1576 27.1542 -4.33659
256 1 7.72638 6.8754 28.5132 -4.33657
257 1 7.72963 2.57745 29.8703 -4.33624
258 1 2.55612e-06 4.2985 31.222 -4.33574
259 1 2.61302e-06 0.00499898 32.5928 -4.32206
260 1 0.965924 1.7287 33.9028 -4.26803
261 1 1.74908 3.47777 32.5647 -4.33124
262 1 2.56597 5.19744 33.9486 -4.31225
263 1 3.43839 6.90368 32.6041 -4.33271
264 1 4.29351 0.00499883 34.0176 -4.30403
265 1 2.61971 0.920477 35.4086 -4.18705
266 1 3.6141 2.62748 36.8059 -4.11895
267 1 4.29351 4.2985 35.2875 -4.25662
268 1 4.97291 5.96953 36.8059 -4.11895
269 1 5.9673 7.67653 35.4086 -4.18705
270 1 5.47131 2.83747 38.4589 -4.08838
271 1 0.774607 6.0822 35.2222 -4.27346
272 1 1.06287 8.06023 36.4869 -4.2251
273 1 5.14862 1.69333 32.6041 -4.33271
274 1 6.02104 3.39957 33.9486 -4.31225
275 1 6.83793 5.11923 32.5647 -4.33124
276 1 7.62109 6.8683 33.9028 -4.26803
277 1 7.81241 2.5148 35.2222 -4.27346
278 1 3.06449e-06 4.2985 36.5144 -4.24994
Egb = 1.04861023564184
