ITEM: TIMESTEP
0
ITEM: NUMBER OF ATOMS
273
ITEM: BOX BOUNDS pp pp ss
0.0000000000000000e+00 8.5870068723042259e+00
0.0000000000000000e+00 8.5870068723042259e+00
-7.2402452733085244e-03 7.2734039483436732e+01
ITEM: ATOMS id type x y z c_eng
1 1 0.807918 5.67001 37.4339 -4.1885
2 1 3.67215 8.09702 38.1883 -4.05095
3 1 1.27159 6.43342 35.2812 -4.16913
4 1 2.25795 4.2888 38.686 -4.20858
5 1 3.85933 5.15866 40.1461 -4.23279
6 1 5.2415 6.43342 38.8034 -4.16913
7 1 7.16687 6.8837 40.1619 -4.25136
8 1 0.350217 7.51631 38.8231 -4.22501
9 1 2.16054 8.36205 40.045 -4.15468
10 1 7.55005 4.27398 37.0423 -4.13812
11 1 5.8229 1.90416 40.0768 -4.15842
12 1 7.69331 2.74907 38.8809 -4.15061
13 1 0.720139 3.49101 40.2754 -4.19443
14 1 4.81255 3.48327 41.4762 -4.30649
15 1 6.50426 4.30991 42.872 -4.33047
16 1 8.19056 5.1838 41.5093 -4.27686
17 1 1.3078 6.00079 42.9023 -4.3228
18 1 3.02444 6.81768 41.5578 -4.2934
19 1 4.77878 7.75475 42.8398 -4.32213
20 1 2.22131 4.26921 44.2064 -4.33254
21 1 3.93069 5.15553 45.5641 -4.33621
22 1 5.64223 6.03791 44.2106 -4.33487
23 1 7.35936 6.88114 45.5784 -4.33564
24 1 0.48567 7.7465 44.2275 -4.33397
25 1 2.2189 0.00508268 45.575 -4.33634
26 1 3.94792 0.860917 44.227 -4.33352
27 1 5.67045 1.72573 45.5696 -4.336
28 1 6.48602 0.0938555 41.4786 -4.30318
29 1 8.26266 0.868939 42.8259 -4.33043
30 1 1.46423 1.6223 41.4609 -4.23532
31 1 3.12361 2.5571 42.841 -4.31874
32 1 7.38792 2.57844 44.1998 -4.33335
33 1 0.505515 3.43145 45.5732 -4.33557
34 1 4.79952 3.4419 46.9238 -4.33645
35 1 6.51372 4.29964 48.2858 -4.33655
36 1 8.22893 5.15637 46.9244 -4.33641
37 1 1.35783 6.01384 48.2861 -4.33658
38 1 3.0749 6.87099 46.9283 -4.33646
39 1 4.79177 7.73275 48.2876 -4.33652
40 1 2.22014 4.29796 49.6439 -4.33658
41 1 3.93676 5.15715 51.0025 -4.3366
42 1 5.6537 6.01612 49.6444 -4.33659
43 1 7.37092 6.87416 51.0033 -4.3366
44 1 0.502281 7.7314 49.6465 -4.33658
45 1 2.21957 0.00476865 51.0033 -4.33659
46 1 3.93695 0.864123 49.6458 -4.33657
47 1 5.65461 1.72275 51.0033 -4.3366
48 1 6.51169 0.00992654 46.9374 -4.33636
49 1 8.23188 0.864008 48.2923 -4.33656
50 1 1.36337 1.71982 46.9351 -4.33651
51 1 3.0832 2.58226 48.286 -4.33655
52 1 7.37184 2.5829 49.6461 -4.33658
53 1 0.503038 3.44018 51.0031 -4.33659
54 1 4.79557 3.44003 52.3608 -4.3366
55 1 6.51306 4.29849 53.7186 -4.3366
56 1 8.23051 5.15714 52.3609 -4.3366
57 1 1.36089 6.01591 53.7186 -4.3366
58 1 3.07837 6.8744 52.3608 -4.3366
59 1 4.79566 7.7333 53.7186 -4.3366
60 1 2.21958 4.2985 55.0763 -4.3366
61 1 3.93698 5.1572 56.434 -4.3366
62 1 5.65438 6.0159 55.0763 -4.3366
63 1 7.37179 6.8746 56.434 -4.3366
64 1 0.50218 7.7333 55.0763 -4.3366
65 1 2.21958 0.00499661 56.434 -4.3366
66 1 3.93698 0.863697 55.0763 -4.3366
67 1 5.65438 1.7224 56.434 -4.3366
68 1 6.51303 0.00506466 52.3609 -4.3366
69 1 8.2305 0.863702 53.7186 -4.3366
70 1 1.36094 1.72236 52.3608 -4.3366
71 1 3.0783 2.58111 53.7186 -4.3366
72 1 7.37179 2.5811 55.0763 -4.3366
73 1 0.50218 3.4398 56.434 -4.3366
74 1 4.79568 3.4398 57.7918 -4.3366
75 1 6.51308 4.2985 59.1495 -4.3366
76 1 8.23049 5.1572 57.7918 -4.3366
77 1 1.36088 6.0159 59.1495 -4.3366
78 1 3.07828 6.8746 57.7918 -4.3366
79 1 4.79568 7.7333 59.1495 -4.3366
80 1 2.21958 4.2985 60.5072 -4.3366
81 1 3.93698 5.1572 61.8649 -4.3366
82 1 5.65438 6.0159 60.5072 -4.3366
83 1 7.37179 6.8746 61.8649 -4.3366
84 1 0.50218 7.7333 60.5072 -4.3366
85 1 2.21958 0.00499661 61.8649 -4.3366
86 1 3.93698 0.863697 60.5072 -4.3366
87 1 5.65438 1.7224 61.8649 -4.3366
88 1 6.51308 0.00499661 57.7918 -4.3366
89 1 8.23049 0.863697 59.1495 -4.3366
90 1 1.36088 1.7224 57.7918 -4.3366
91 1 3.07828 2.5811 59.1495 -4.3366
92 1 7.37179 2.5811 60.5072 -4.3366
93 1 0.50218 3.4398 61.8649 -4.3366
94 1 4.79568 3.4398 63.2227 -4.3366
95 1 6.51308 4.2985 64.5804 -4.3366
96 1 8.23049 5.1572 63.2227 -4.3366
97 1 1.36088 6.0159 64.5804 -4.3366
98 1 3.07828 6.8746 63.2227 -4.3366
99 1 4.79568 7.7333 64.5804 -4.3366
100 1 2.21958 4.2985 65.9381 -4.3366
101 1 3.93698 5.1572 67.2958 -4.3366
102 1 5.65438 6.0159 65.9381 -4.3366
103 1 7.37179 6.8746 67.2958 -4.3366
104 1 0.50218 7.7333 65.9381 -4.3366
105 1 2.21958 0.00499661 67.2958 -4.3366
106 1 3.93698 0.863697 65.9381 -4.3366
107 1 5.65438 1.7224 67.2958 -4.3366
108 1 6.51308 0.00499661 63.2227 -4.3366
109 1 8.23049 0.863697 64.5804 -4.3366
110 1 1.36088 1.7224 63.2227 -4.3366
111 1 3.07828 2.5811 64.5804 -4.3366
112 1 7.37179 2.5811 65.9381 -4.3366
113 1 0.50218 3.4398 67.2958 -4.3366
114 1 4.79568 3.4398 68.6536 -4.3366
115 1 6.51308 4.2985 70.0113 -4.3366
116 1 8.23049 5.1572 68.6536 -4.3366
117 1 1.36088 6.0159 70.0113 -4.3366
118 1 3.07828 6.8746 68.6536 -4.3366
119 1 4.79568 7.7333 70.0113 -4.3366
120 1 2.21958 4.2985 71.369 -4.3366
121 1 3.93698 5.1572 72.7267 -2.1683
122 1 5.65438 6.0159 71.369 -4.3366
123 1 7.37179 6.8746 72.7267 -2.1683
124 1 0.50218 7.7333 71.369 -4.3366
125 1 2.21958 0.00499661 72.7267 -2.1683
126 1 3.93698 0.863697 71.369 -4.3366
127 1 5.65438 1.7224 72.7267 -2.1683
128 1 6.51308 0.00499661 68.6536 -4.3366
129 1 8.23049 0.863697 70.0113 -4.3366
130 1 1.36088 1.7224 68.6536 -4.3366
131 1 3.07828 2.5811 70.0113 -4.3366
132 1 7.37179 2.5811 71.369 -4.3366
133 1 0.50218 3.4398 72.7267 -2.1683
134 1 0 0.005 5e-05 -2.1683
135 1 0.858701 1.7224 1.35778 -4.3366
136 1 1.7174 3.4398 5e-05 -2.1683
137 1 2.5761 5.1572 1.35778 -4.3366
138 1 3.4348 6.87461 5e-05 -2.1683
139 1 4.2935 0.005 1.35778 -4.3366
140 1 2.5761 0.863701 2.7155 -4.3366
141 1 3.4348 2.5811 4.07322 -4.3366
142 1 4.2935 4.2985 2.7155 -4.3366
143 1 5.1522 6.0159 4.07322 -4.3366
144 1 6.0109 7.73331 2.7155 -4.3366
145 1 6.86961 0.863701 4.07322 -4.3366
146 1 0.858701 6.0159 2.7155 -4.3366
147 1 1.7174 7.73331 4.07322 -4.3366
148 1 5.1522 1.7224 5e-05 -2.1683
149 1 6.0109 3.4398 1.35778 -4.3366
150 1 6.86961 5.1572 5e-05 -2.1683
151 1 7.72831 6.87461 1.35778 -4.3366
152 1 7.72831 2.5811 2.7155 -4.3366
153 1 5.01367e-16 4.2985 4.07322 -4.3366
154 1 0 0.005 5.43095 -4.3366
155 1 0.858701 1.7224 6.78868 -4.3366
156 1 1.7174 3.4398 5.43095 -4.3366
157 1 2.5761 5.1572 6.78868 -4.3366
158 1 3.4348 6.87461 5.43095 -4.3366
159 1 4.2935 0.005 6.78868 -4.3366
160 1 2.5761 0.863701 8.1464 -4.3366
161 1 3.4348 2.5811 9.50413 -4.3366
162 1 4.2935 4.2985 8.1464 -4.3366
163 1 5.1522 6.0159 9.50413 -4.3366
164 1 6.0109 7.73331 8.1464 -4.3366
165 1 6.86961 0.863701 9.50413 -4.3366
166 1 0.858701 6.0159 8.1464 -4.3366
167 1 1.7174 7.73331 9.50413 -4.3366
168 1 5.1522 1.7224 5.43095 -4.3366
169 1 6.0109 3.4398 6.78868 -4.3366
170 1 6.86961 5.1572 5.43095 -4.3366
171 1 7.72831 6.87461 6.78868 -4.3366
172 1 7.72831 2.5811 8.1464 -4.3366
173 1 5.01367e-16 4.2985 9.50413 -4.3366
174 1 0 0.005 10.8619 -4.3366
175 1 0.858701 1.7224 12.2196 -4.3366
176 1 1.7174 3.4398 10.8619 -4.3366
177 1 2.5761 5.1572 12.2196 -4.3366
178 1 3.4348 6.87461 10.8619 -4.3366
179 1 4.2935 0.005 12.2196 -4.3366
180 1 2.5761 0.863701 13.5773 -4.3366
181 1 3.4348 2.5811 14.935 -4.3366
182 1 4.2935 4.2985 13.5773 -4.3366
183 1 5.1522 6.0159 14.935 -4.3366
184 1 6.0109 7.73331 13.5773 -4.3366
185 1 6.86961 0.863701 14.935 -4.3366
186 1 0.858701 6.0159 13.5773 -4.3366
187 1 1.7174 7.73331 14.935 -4.3366
188 1 5.1522 1.7224 10.8619 -4.3366
189 1 6.0109 3.4398 12.2196 -4.3366
190 1 6.86961 5.1572 10.8619 -4.3366
191 1 7.72831 6.87461 12.2196 -4.3366
192 1 7.72831 2.5811 13.5773 -4.3366
193 1 5.01367e-16 4.2985 14.935 -4.3366
194 1 0 0.005 16.2928 -4.3366
195 1 0.858701 1.7224 17.6505 -4.3366
196 1 1.7174 3.4398 16.2928 -4.3366
197 1 2.5761 5.1572 17.6505 -4.3366
198 1 3.4348 6.87461 16.2928 -4.3366
199 1 4.2935 0.005 17.6505 -4.3366
200 1 2.5761 0.863703 19.0082 -4.3366
201 1 3.43478 2.58111 20.366 -4.3366
202 1 4.29351 4.2985 19.0082 -4.3366
203 1 5.15219 6.01592 20.366 -4.3366
204 1 6.01091 7.73332 19.0082 -4.3366
205 1 6.8696 0.863707 20.366 -4.3366
206 1 0.858695 6.0159 19.0082 -4.3366
207 1 1.71742 7.7333 20.366 -4.3366
208 1 5.1522 1.7224 16.2928 -4.3366
209 1 6.0109 3.4398 17.6505 -4.3366
210 1 6.86961 5.1572 16.2928 -4.3366
211 1 7.72831 6.87461 17.6505 -4.3366
212 1 7.72831 2.58109 19.0082 -4.3366
213 1 2.41361e-05 4.29849 20.366 -4.3366
214 1 6.1486e-05 0.00506585 21.7237 -4.3366
215 1 0.858471 1.72275 23.0813 -4.3366
216 1 1.71751 3.44003 21.7238 -4.3366
217 1 2.57633 5.15715 23.082 -4.3366
218 1 3.43472 6.8744 21.7238 -4.3366
219 1 4.29351 0.00477 23.0813 -4.33659
220 1 2.57614 0.864125 24.4388 -4.33657
221 1 3.42988 2.58227 25.7986 -4.33655
222 1 4.29295 4.29796 24.4407 -4.33658
223 1 5.15525 6.01384 25.7984 -4.33658
224 1 6.0108 7.7314 24.4381 -4.33658
225 1 6.86821 0.86401 25.7922 -4.33656
226 1 0.85938 6.01612 24.4401 -4.33659
227 1 1.72131 7.73275 25.7969 -4.33652
228 1 5.15214 1.72237 21.7237 -4.3366
229 1 6.01005 3.44018 23.0815 -4.33659
230 1 6.86958 5.15714 21.7237 -4.3366
231 1 7.72917 6.87416 23.0813 -4.3366
232 1 7.72825 2.5829 24.4385 -4.33658
233 1 8.58637 4.29964 25.7987 -4.33655
234 1 0.00139145 0.00992859 27.1471 -4.33636
235 1 0.842635 1.72573 28.515 -4.336
236 1 1.71356 3.4419 27.1607 -4.33645
237 1 2.5824 5.15553 28.5204 -4.33621
238 1 3.43818 6.87099 27.1563 -4.33646
239 1 4.29418 0.00508457 28.5096 -4.33634
240 1 2.56517 0.860919 29.8576 -4.33352
241 1 3.38948 2.5571 31.2435 -4.31874
242 1 4.29177 4.26921 29.8782 -4.33254
243 1 5.20529 6.0008 31.1823 -4.3228
244 1 6.02741 7.7465 29.8571 -4.33397
245 1 6.83743 0.86894 31.2587 -4.33043
246 1 0.87085 6.03792 29.8739 -4.33487
247 1 1.73431 7.75475 31.2448 -4.32213
248 1 5.14972 1.71982 27.1494 -4.33651
249 1 6.00757 3.43146 28.5114 -4.33557
250 1 6.87116 5.15637 27.1601 -4.33641
251 1 7.74073 6.88115 28.5061 -4.33564
252 1 7.71217 2.57844 29.8847 -4.33335
253 1 0.0088276 4.30991 31.2125 -4.33047
254 1 0.0270645 0.0938565 32.606 -4.30318
255 1 0.690188 1.90416 34.0077 -4.15842
256 1 1.70053 3.48327 32.6084 -4.30649
257 1 2.65376 5.15867 33.9384 -4.23279
258 1 3.48864 6.81768 32.5268 -4.2934
259 1 4.35254 8.36205 34.0396 -4.15468
260 1 1.67035 1.45459 36.1286 -4.21404
261 1 3.25654 2.92026 37.0423 -4.23684
262 1 4.25513 4.2888 35.3985 -4.20858
263 1 5.70517 5.67001 36.6506 -4.1885
264 1 2.84093 8.09703 35.8963 -4.05095
265 1 4.84274 1.45459 37.9559 -4.21404
266 1 6.16287 7.51631 35.2615 -4.22501
267 1 8.54464 0.899515 37.6685 -4.1358
268 1 5.04886 1.6223 32.6236 -4.23532
269 1 5.79295 3.49101 33.8092 -4.19443
270 1 6.90954 5.1838 32.5753 -4.27686
271 1 7.93322 6.8837 33.9226 -4.25136
272 1 6.55546 0.899515 36.416 -4.1358
273 1 7.40678 2.74907 35.2036 -4.15061
Egb = 1.10199384945264
