ITEM: TIMESTEP
0
ITEM: NUMBER OF ATOMS
544
ITEM: BOX BOUNDS pp pp ss
0.0000000000000000e+00 8.5870068723042259e+00
0.0000000000000000e+00 1.7174013744608452e+01
-7.2110919757818132e-03 7.2486964463218328e+01
ITEM: ATOMS id type x y z c_eng
1 1 8.38506 5.00952 37.1164 -4.15341
2 1 0.895372 3.48498 38.5384 -4.15611
3 1 2.57859 4.36948 39.8976 -4.31995
4 1 4.09645 5.75822 38.5699 -4.36179
5 1 6.01752 6.10221 39.8793 -4.29552
6 1 7.72831 6.8746 38.4659 -4.24794
7 1 0.852092 7.647 39.8793 -4.29552
8 1 2.77316 7.99099 38.5699 -4.36179
9 1 4.29102 9.37973 39.8976 -4.31995
10 1 5.97424 10.2642 38.5384 -4.15611
11 1 7.72025 2.62945 39.8761 -4.27165
12 1 3.43461 2.6144 41.2416 -4.31168
13 1 5.14561 3.45451 42.6085 -4.3352
14 1 6.83541 4.33347 41.2301 -4.32185
15 1 8.54306 5.14293 42.6359 -4.3325
16 1 1.67981 6.00395 41.3185 -4.27123
17 1 3.4348 6.8746 42.6344 -4.333
18 1 0.847935 3.43117 43.9733 -4.33554
19 1 2.56725 4.29308 45.3304 -4.33648
20 1 4.28964 5.15646 43.9845 -4.33625
21 1 6.00594 6.01644 45.3414 -4.3362
22 1 7.72831 6.8746 43.9947 -4.33527
23 1 0.863669 7.73277 45.3414 -4.3362
24 1 2.57997 8.59275 43.9845 -4.33625
25 1 4.30236 9.45613 45.3304 -4.33648
26 1 5.1898 7.74526 41.3185 -4.27123
27 1 6.91356 8.60628 42.6359 -4.3325
28 1 0.0341945 9.41574 41.2301 -4.32185
29 1 1.724 10.2947 42.6085 -4.3352
30 1 6.02167 10.318 43.9733 -4.33554
31 1 7.71923 2.57409 45.328 -4.3363
32 1 3.4323 2.57503 46.6815 -4.33654
33 1 5.14813 3.4354 48.0421 -4.33655
34 1 6.86702 4.29365 46.6887 -4.3365
35 1 8.58469 5.15399 48.0452 -4.33655
36 1 1.71759 6.0113 46.6922 -4.33647
37 1 3.4348 6.8746 48.0459 -4.3365
38 1 0.859485 3.43656 49.3989 -4.33657
39 1 2.5761 4.2985 50.7561 -4.33659
40 1 4.29391 5.15549 49.3997 -4.33657
41 1 6.01091 6.0159 50.7561 -4.33659
42 1 7.72831 6.8746 49.3999 -4.33657
43 1 0.858703 7.7333 50.7561 -4.33659
44 1 2.5757 8.59372 49.3997 -4.33657
45 1 4.29351 9.45071 50.7561 -4.33659
46 1 5.15202 7.73791 46.6922 -4.33647
47 1 6.87192 8.59522 48.0452 -4.33655
48 1 0.00258632 9.45555 46.6887 -4.3365
49 1 1.72148 10.3138 48.0421 -4.33655
50 1 6.01012 10.3127 49.3989 -4.33657
51 1 7.72831 2.5811 50.7561 -4.33659
52 1 3.4348 2.5811 52.1138 -4.3366
53 1 5.15221 3.4398 53.4716 -4.3366
54 1 6.86961 4.2985 52.1138 -4.3366
55 1 1.94186e-06 5.1572 53.4716 -4.3366
56 1 1.7174 6.0159 52.1138 -4.3366
57 1 3.4348 6.8746 53.4716 -4.3366
58 1 0.858703 3.4398 54.8293 -4.3366
59 1 2.5761 4.2985 56.187 -4.3366
60 1 4.29351 5.1572 54.8293 -4.3366
61 1 6.01091 6.0159 56.187 -4.3366
62 1 7.72831 6.8746 54.8293 -4.3366
63 1 0.858703 7.7333 56.187 -4.3366
64 1 2.5761 8.59201 54.8293 -4.3366
65 1 4.29351 9.45071 56.187 -4.3366
66 1 5.15221 7.7333 52.1138 -4.3366
67 1 6.86961 8.59201 53.4716 -4.3366
68 1 1.94186e-06 9.45071 52.1138 -4.3366
69 1 1.7174 10.3094 53.4716 -4.3366
70 1 6.01091 10.3094 54.8293 -4.3366
71 1 7.72831 2.5811 56.187 -4.3366
72 1 3.4348 2.5811 57.5447 -4.3366
73 1 5.15221 3.4398 58.9025 -4.3366
74 1 6.86961 4.2985 57.5447 -4.3366
75 1 1.94186e-06 5.1572 58.9025 -4.3366
76 1 1.7174 6.0159 57.5447 -4.3366
77 1 3.4348 6.8746 58.9025 -4.3366
78 1 0.858703 3.4398 60.2602 -4.3366
79 1 2.5761 4.2985 61.6179 -4.3366
80 1 4.29351 5.1572 60.2602 -4.3366
81 1 6.01091 6.0159 61.6179 -4.3366
82 1 7.72831 6.8746 60.2602 -4.3366
83 1 0.858703 7.7333 61.6179 -4.3366
84 1 2.5761 8.59201 60.2602 -4.3366
85 1 4.29351 9.45071 61.6179 -4.3366
86 1 5.15221 7.7333 57.5447 -4.3366
87 1 6.86961 8.59201 58.9025 -4.3366
88 1 1.94186e-06 9.45071 57.5447 -4.3366
89 1 1.7174 10.3094 58.9025 -4.3366
90 1 6.01091 10.3094 60.2602 -4.3366
91 1 7.72831 2.5811 61.6179 -4.3366
92 1 3.4348 2.5811 62.9756 -4.3366
93 1 5.15221 3.4398 64.3334 -4.3366
94 1 6.86961 4.2985 62.9756 -4.3366
95 1 1.94186e-06 5.1572 64.3334 -4.3366
96 1 1.7174 6.0159 62.9756 -4.3366
97 1 3.4348 6.8746 64.3334 -4.3366
98 1 0.858703 3.4398 65.6911 -4.3366
99 1 2.5761 4.2985 67.0488 -4.3366
100 1 4.29351 5.1572 65.6911 -4.3366
101 1 6.01091 6.0159 67.0488 -4.3366
102 1 7.72831 6.8746 65.6911 -4.3366
103 1 0.858703 7.7333 67.0488 -4.3366
104 1 2.5761 8.59201 65.6911 -4.3366
105 1 4.29351 9.45071 67.0488 -4.3366
106 1 5.15221 7.7333 62.9756 -4.3366
107 1 6.86961 8.59201 64.3334 -4.3366
108 1 1.94186e-06 9.45071 62.9756 -4.3366
109 1 1.7174 10.3094 64.3334 -4.3366
110 1 6.01091 10.3094 65.6911 -4.3366
111 1 7.72831 2.5811 67.0488 -4.3366
112 1 3.4348 2.5811 68.4065 -4.3366
113 1 5.15221 3.4398 69.7643 -4.3366
114 1 6.86961 4.2985 68.4065 -4.3366
115 1 1.94186e-06 5.1572 69.7643 -4.3366
116 1 1.7174 6.0159 68.4065 -4.3366
117 1 3.4348 6.8746 69.7643 -4.3366
118 1 0.858703 3.4398 71.122 -4.3366
119 1 2.5761 4.2985 72.4797 -2.1683
120 1 4.29351 5.1572 71.122 -4.3366
121 1 6.01091 6.0159 72.4797 -2.1683
122 1 7.72831 6.8746 71.122 -4.3366
123 1 0.858703 7.7333 72.4797 -2.1683
124 1 2.5761 8.59201 71.122 -4.3366
125 1 4.29351 9.45071 72.4797 -2.1683
126 1 5.15221 7.7333 68.4065 -4.3366
127 1 6.86961 8.59201 69.7643 -4.3366
128 1 1.94186e-06 9.45071 68.4065 -4.3366
129 1 1.7174 10.3094 69.7643 -4.3366
130 1 6.01091 10.3094 71.122 -4.3366
131 1 7.72831 2.5811 72.4797 -2.1683
132 1 7.72831 15.4616 38.5562 -4.29583
133 1 0.905704 11.8563 38.4455 -4.60064
134 1 2.5549 12.8567 39.8927 -4.19658
135 1 4.2622 13.7445 38.5501 -4.30349
136 1 6.01072 14.5811 39.8932 -4.33188
137 1 0.858884 16.3422 39.8932 -4.33188
138 1 2.60741 0.00466742 38.5501 -4.30349
139 1 0.107989 16.1645 34.9562 -3.84097
140 1 4.3147 0.892516 39.8927 -4.19658
141 1 6.93276 12.4693 35.9919 -4.44947
142 1 5.9639 1.89286 38.4455 -4.60064
143 1 4.11658 3.27763 37.5325 -3.66009
144 1 7.73637 11.1198 39.8761 -4.27165
145 1 3.43499 11.1348 41.2416 -4.31168
146 1 5.15473 12.0148 42.5937 -4.33616
147 1 6.88264 12.8558 41.2327 -4.33454
148 1 8.58475 13.7365 42.5982 -4.33622
149 1 1.70698 14.6008 41.2367 -4.33109
150 1 3.4348 15.4616 42.5888 -4.33621
151 1 0.864031 12.0227 43.9577 -4.33638
152 1 2.58068 12.887 45.3141 -4.33651
153 1 4.29594 13.7416 43.9476 -4.33639
154 1 6.01035 14.6033 45.3116 -4.3365
155 1 7.72831 15.4616 43.9521 -4.33639
156 1 0.85926 16.3199 45.3116 -4.3365
157 1 2.57367 0.00757931 43.9476 -4.33639
158 1 4.28893 0.862253 45.3141 -4.33651
159 1 5.16263 16.3224 41.2367 -4.33109
160 1 6.87187 0.01274 42.5982 -4.33622
161 1 8.57398 0.8934 41.2327 -4.33454
162 1 1.71488 1.73445 42.5937 -4.33616
163 1 6.00558 1.72646 43.9577 -4.33638
164 1 7.73738 11.1751 45.328 -4.3363
165 1 3.4373 11.1742 46.6815 -4.33654
166 1 5.15498 12.0313 48.039 -4.33657
167 1 6.87086 12.8923 46.6789 -4.3365
168 1 0.00269363 13.7476 48.0365 -4.33653
169 1 1.71892 14.6039 46.6729 -4.33651
170 1 3.4348 15.4616 48.0347 -4.33654
171 1 0.858152 12.0297 49.3977 -4.33657
172 1 2.5761 12.8855 50.7561 -4.33659
173 1 4.2929 13.7462 49.397 -4.33657
174 1 6.01091 14.6029 50.7561 -4.33659
175 1 7.72831 15.4616 49.397 -4.33657
176 1 0.858703 16.3203 50.7561 -4.33659
177 1 2.57671 0.00297078 49.397 -4.33657
178 1 4.29351 0.863699 50.7561 -4.33659
179 1 5.15069 16.3194 46.6729 -4.33651
180 1 6.86692 0.00164579 48.0365 -4.33653
181 1 8.58575 0.856932 46.6789 -4.3365
182 1 1.71463 1.7179 48.039 -4.33657
183 1 6.01146 1.7195 49.3977 -4.33657
184 1 7.72831 11.1681 50.7561 -4.33659
185 1 3.4348 11.1681 52.1138 -4.3366
186 1 5.15221 12.0268 53.4716 -4.3366
187 1 6.86961 12.8855 52.1138 -4.3366
188 1 1.94186e-06 13.7442 53.4716 -4.3366
189 1 1.7174 14.6029 52.1138 -4.3366
190 1 3.4348 15.4616 53.4716 -4.3366
191 1 0.858703 12.0268 54.8293 -4.3366
192 1 2.5761 12.8855 56.187 -4.3366
193 1 4.29351 13.7442 54.8293 -4.3366
194 1 6.01091 14.6029 56.187 -4.3366
195 1 7.72831 15.4616 54.8293 -4.3366
196 1 0.858703 16.3203 56.187 -4.3366
197 1 2.5761 0.00499817 54.8293 -4.3366
198 1 4.29351 0.863699 56.187 -4.3366
199 1 5.15221 16.3203 52.1138 -4.3366
200 1 6.86961 0.00499817 53.4716 -4.3366
201 1 1.94186e-06 0.863699 52.1138 -4.3366
202 1 1.7174 1.7224 53.4716 -4.3366
203 1 6.01091 1.7224 54.8293 -4.3366
204 1 7.72831 11.1681 56.187 -4.3366
205 1 3.4348 11.1681 57.5447 -4.3366
206 1 5.15221 12.0268 58.9025 -4.3366
207 1 6.86961 12.8855 57.5447 -4.3366
208 1 1.94186e-06 13.7442 58.9025 -4.3366
209 1 1.7174 14.6029 57.5447 -4.3366
210 1 3.4348 15.4616 58.9025 -4.3366
211 1 0.858703 12.0268 60.2602 -4.3366
212 1 2.5761 12.8855 61.6179 -4.3366
213 1 4.29351 13.7442 60.2602 -4.3366
214 1 6.01091 14.6029 61.6179 -4.3366
215 1 7.72831 15.4616 60.2602 -4.3366
216 1 0.858703 16.3203 61.6179 -4.3366
217 1 2.5761 0.00499817 60.2602 -4.3366
218 1 4.29351 0.863699 61.6179 -4.3366
219 1 5.15221 16.3203 57.5447 -4.3366
220 1 6.86961 0.00499817 58.9025 -4.3366
221 1 1.94186e-06 0.863699 57.5447 -4.3366
222 1 1.7174 1.7224 58.9025 -4.3366
223 1 6.01091 1.7224 60.2602 -4.3366
224 1 7.72831 11.1681 61.6179 -4.3366
225 1 3.4348 11.1681 62.9756 -4.3366
226 1 5.15221 12.0268 64.3334 -4.3366
227 1 6.86961 12.8855 62.9756 -4.3366
228 1 1.94186e-06 13.7442 64.3334 -4.3366
229 1 1.7174 14.6029 62.9756 -4.3366
230 1 3.4348 15.4616 64.3334 -4.3366
231 1 0.858703 12.0268 65.6911 -4.3366
232 1 2.5761 12.8855 67.0488 -4.3366
233 1 4.29351 13.7442 65.6911 -4.3366
234 1 6.01091 14.6029 67.0488 -4.3366
235 1 7.72831 15.4616 65.6911 -4.3366
236 1 0.858703 16.3203 67.0488 -4.3366
237 1 2.5761 0.00499817 65.6911 -4.3366
238 1 4.29351 0.863699 67.0488 -4.3366
239 1 5.15221 16.3203 62.9756 -4.3366
240 1 6.86961 0.00499817 64.3334 -4.3366
241 1 1.94186e-06 0.863699 62.9756 -4.3366
242 1 1.7174 1.7224 64.3334 -4.3366
243 1 6.01091 1.7224 65.6911 -4.3366
244 1 7.72831 11.1681 67.0488 -4.3366
245 1 3.4348 11.1681 68.4065 -4.3366
246 1 5.15221 12.0268 69.7643 -4.3366
247 1 6.86961 12.8855 68.4065 -4.3366
248 1 1.94186e-06 13.7442 69.7643 -4.3366
249 1 1.7174 14.6029 68.4065 -4.3366
250 1 3.4348 15.4616 69.7643 -4.3366
251 1 0.858703 12.0268 71.122 -4.3366
252 1 2.5761 12.8855 72.4797 -2.1683
253 1 4.29351 13.7442 71.122 -4.3366
254 1 6.01091 14.6029 72.4797 -2.1683
255 1 7.72831 15.4616 71.122 -4.3366
256 1 0.858703 16.3203 72.4797 -2.1683
257 1 2.5761 0.00499817 71.122 -4.3366
258 1 4.29351 0.863699 72.4797 -2.1683
259 1 5.15221 16.3203 68.4065 -4.3366
260 1 6.86961 0.00499817 69.7643 -4.3366
261 1 1.94186e-06 0.863699 68.4065 -4.3366
262 1 1.7174 1.7224 69.7643 -4.3366
263 1 6.01091 1.7224 71.122 -4.3366
264 1 7.72831 11.1681 72.4797 -2.1683
265 1 0 0.005 5e-05 -2.1683
266 1 0.858701 1.7224 1.35778 -4.3366
267 1 1.7174 3.4398 5e-05 -2.1683
268 1 2.5761 5.1572 1.35778 -4.3366
269 1 3.4348 6.87461 5e-05 -2.1683
270 1 4.2935 0.005 1.35778 -4.3366
271 1 2.5761 0.863701 2.7155 -4.3366
272 1 3.4348 2.5811 4.07322 -4.3366
273 1 4.2935 4.2985 2.7155 -4.3366
274 1 5.1522 6.0159 4.07322 -4.3366
275 1 6.0109 7.73331 2.7155 -4.3366
276 1 6.86961 0.863701 4.07322 -4.3366
277 1 0.858701 6.0159 2.7155 -4.3366
278 1 1.7174 7.73331 4.07322 -4.3366
279 1 5.1522 1.7224 5e-05 -2.1683
280 1 6.0109 3.4398 1.35778 -4.3366
281 1 6.86961 5.1572 5e-05 -2.1683
282 1 7.72831 6.87461 1.35778 -4.3366
283 1 7.72831 2.5811 2.7155 -4.3366
284 1 5.01367e-16 4.2985 4.07322 -4.3366
285 1 0 0.005 5.43095 -4.3366
286 1 0.858701 1.7224 6.78868 -4.3366
287 1 1.7174 3.4398 5.43095 -4.3366
288 1 2.5761 5.1572 6.78868 -4.3366
289 1 3.4348 6.87461 5.43095 -4.3366
290 1 4.2935 0.005 6.78868 -4.3366
291 1 2.5761 0.863701 8.1464 -4.3366
292 1 3.4348 2.5811 9.50413 -4.3366
293 1 4.2935 4.2985 8.1464 -4.3366
294 1 5.1522 6.0159 9.50413 -4.3366
295 1 6.0109 7.73331 8.1464 -4.3366
296 1 6.86961 0.863701 9.50413 -4.3366
297 1 0.858701 6.0159 8.1464 -4.3366
298 1 1.7174 7.73331 9.50413 -4.3366
299 1 5.1522 1.7224 5.43095 -4.3366
300 1 6.0109 3.4398 6.78868 -4.3366
301 1 6.86961 5.1572 5.43095 -4.3366
302 1 7.72831 6.87461 6.78868 -4.3366
303 1 7.72831 2.5811 8.1464 -4.3366
304 1 5.01367e-16 4.2985 9.50413 -4.3366
305 1 0 0.005 10.8619 -4.3366
306 1 0.858701 1.7224 12.2196 -4.3366
307 1 1.7174 3.4398 10.8619 -4.3366
308 1 2.5761 5.1572 12.2196 -4.3366
309 1 3.4348 6.87461 10.8619 -4.3366
310 1 4.2935 0.005 12.2196 -4.3366
311 1 2.5761 0.863701 13.5773 -4.3366
312 1 3.4348 2.5811 14.935 -4.3366
313 1 4.2935 4.2985 13.5773 -4.3366
314 1 5.1522 6.0159 14.935 -4.3366
315 1 6.0109 7.73331 13.5773 -4.3366
316 1 6.86961 0.863701 14.935 -4.3366
317 1 0.858701 6.0159 13.5773 -4.3366
318 1 1.7174 7.73331 14.935 -4.3366
319 1 5.1522 1.7224 10.8619 -4.3366
320 1 6.0109 3.4398 12.2196 -4.3366
321 1 6.86961 5.1572 10.8619 -4.3366
322 1 7.72831 6.87461 12.2196 -4.3366
323 1 7.72831 2.5811 13.5773 -4.3366
324 1 5.01367e-16 4.2985 14.935 -4.3366
325 1 0 0.005 16.2928 -4.3366
326 1 0.858701 1.7224 17.6505 -4.3366
327 1 1.7174 3.4398 16.2928 -4.3366
328 1 2.5761 5.1572 17.6505 -4.3366
329 1 3.4348 6.87461 16.2928 -4.3366
330 1 4.2935 0.005 17.6505 -4.3366
331 1 2.5761 0.863701 19.0082 -4.3366
332 1 3.4348 2.5811 20.3659 -4.3366
333 1 4.2935 4.2985 19.0082 -4.3366
334 1 5.1522 6.0159 20.3659 -4.3366
335 1 6.0109 7.73331 19.0082 -4.3366
336 1 6.86961 0.863701 20.3659 -4.3366
337 1 0.858701 6.0159 19.0082 -4.3366
338 1 1.7174 7.73331 20.3659 -4.3366
339 1 5.1522 1.7224 16.2928 -4.3366
340 1 6.0109 3.4398 17.6505 -4.3366
341 1 6.86961 5.1572 16.2928 -4.3366
342 1 7.72831 6.87461 17.6505 -4.3366
343 1 7.72831 2.5811 19.0082 -4.3366
344 1 5.01367e-16 4.2985 20.3659 -4.3366
345 1 0 0.005 21.7237 -4.33658
346 1 0.854171 1.72528 23.0806 -4.33655
347 1 1.7174 3.4398 21.7237 -4.33657
348 1 2.57308 5.15949 23.0837 -4.33653
349 1 3.4348 6.87461 21.7237 -4.33658
350 1 4.2908 0.00705458 23.0788 -4.33654
351 1 2.57314 0.868185 24.4344 -4.3365
352 1 3.42552 2.58835 25.794 -4.3363
353 1 4.2919 4.30485 24.442 -4.3365
354 1 5.15272 6.01641 25.8088 -4.33649
355 1 6.01262 7.73249 24.4473 -4.3365
356 1 6.86061 0.869331 25.7925 -4.33648
357 1 0.85699 6.01672 24.4473 -4.3365
358 1 1.71688 7.7328 25.8088 -4.33649
359 1 5.1522 1.7224 21.7237 -4.33657
360 1 6.00751 3.44249 23.0823 -4.33657
361 1 6.86961 5.1572 21.7237 -4.33658
362 1 7.72831 6.87461 23.0848 -4.33654
363 1 7.72539 2.58671 24.4405 -4.33654
364 1 8.58225 4.30018 25.807 -4.33651
365 1 8.58291 0.00595456 27.1385 -4.33624
366 1 0.852058 1.70821 28.5138 -4.33519
367 1 1.71168 3.4361 27.1639 -4.33637
368 1 2.57834 5.14979 28.5232 -4.33622
369 1 3.4348 6.8746 27.1687 -4.33638
370 1 4.24953 0.0195789 28.4868 -4.3325
371 1 2.54173 0.829017 29.8922 -4.32186
372 1 3.42672 2.53312 31.2459 -4.27164
373 1 4.28029 4.2691 29.889 -4.33453
374 1 5.15238 5.99415 31.2286 -4.33189
375 1 6.00054 7.73531 29.8848 -4.33111
376 1 6.87211 0.793067 31.2246 -4.32006
377 1 0.869066 6.0139 29.8848 -4.33111
378 1 1.71722 7.75506 31.2286 -4.33189
379 1 5.14108 1.73136 27.149 -4.33555
380 1 6.00833 3.42826 28.5281 -4.33615
381 1 6.86694 5.15484 27.1735 -4.33638
382 1 7.72831 6.8746 28.5324 -4.33622
383 1 7.7279 2.54819 29.8804 -4.31165
384 1 0.021202 4.26999 31.2291 -4.19659
385 1 8.38992 16.578 32.5523 -4.36162
386 1 8.4101 1.88472 33.5895 -3.66017
387 1 1.67029 3.26959 32.6764 -4.60057
388 1 2.52 5.12438 33.8862 -4.11362
389 1 3.4348 6.8746 32.5656 -4.29587
390 1 4.09154 0.152786 34.0057 -4.15336
391 1 2.6777 1.94614 34.7778 -3.62447
392 1 2.02371 1.85431 37.2294 -4.60652
393 1 4.23036 3.88239 35.13 -4.44947
394 1 4.4015 6.17173 36.1659 -3.84096
395 1 6.0007 7.68321 35.2946 -4.15147
396 1 6.81348 0.0379195 37.2358 -4.11359
397 1 0.868911 6.066 35.2946 -4.15147
398 1 2.46811 7.57748 36.1659 -3.84096
399 1 5.18876 1.67749 32.5837 -4.15608
400 1 6.31725 3.30807 33.8926 -4.60651
401 1 6.90087 5.15766 32.5718 -4.3035
402 1 7.72831 6.8746 33.9298 -4.30903
403 1 8.52385 1.27989 35.9919 -4.44947
404 1 6.97126 3.21619 36.3442 -3.62449
405 1 0 8.59201 5e-05 -2.1683
406 1 0.858701 10.3094 1.35778 -4.3366
407 1 1.7174 12.0268 5e-05 -2.1683
408 1 2.5761 13.7442 1.35778 -4.3366
409 1 3.4348 15.4616 5e-05 -2.1683
410 1 4.2935 8.59201 1.35778 -4.3366
411 1 2.5761 9.45071 2.7155 -4.3366
412 1 3.4348 11.1681 4.07322 -4.3366
413 1 4.2935 12.8855 2.7155 -4.3366
414 1 5.1522 14.6029 4.07322 -4.3366
415 1 6.0109 16.3203 2.7155 -4.3366
416 1 6.86961 9.45071 4.07322 -4.3366
417 1 0.858701 14.6029 2.7155 -4.3366
418 1 1.7174 16.3203 4.07322 -4.3366
419 1 5.1522 10.3094 5e-05 -2.1683
420 1 6.0109 12.0268 1.35778 -4.3366
421 1 6.86961 13.7442 5e-05 -2.1683
422 1 7.72831 15.4616 1.35778 -4.3366
423 1 7.72831 11.1681 2.7155 -4.3366
424 1 5.01367e-16 12.8855 4.07322 -4.3366
425 1 0 8.59201 5.43095 -4.3366
426 1 0.858701 10.3094 6.78868 -4.3366
427 1 1.7174 12.0268 5.43095 -4.3366
428 1 2.5761 13.7442 6.78868 -4.3366
429 1 3.4348 15.4616 5.43095 -4.3366
430 1 4.2935 8.59201 6.78868 -4.3366
431 1 2.5761 9.45071 8.1464 -4.3366
432 1 3.4348 11.1681 9.50413 -4.3366
433 1 4.2935 12.8855 8.1464 -4.3366
434 1 5.1522 14.6029 9.50413 -4.3366
435 1 6.0109 16.3203 8.1464 -4.3366
436 1 6.86961 9.45071 9.50413 -4.3366
437 1 0.858701 14.6029 8.1464 -4.3366
438 1 1.7174 16.3203 9.50413 -4.3366
439 1 5.1522 10.3094 5.43095 -4.3366
440 1 6.0109 12.0268 6.78868 -4.3366
441 1 6.86961 13.7442 5.43095 -4.3366
442 1 7.72831 15.4616 6.78868 -4.3366
443 1 7.72831 11.1681 8.1464 -4.3366
444 1 5.01367e-16 12.8855 9.50413 -4.3366
445 1 0 8.59201 10.8619 -4.3366
446 1 0.858701 10.3094 12.2196 -4.3366
447 1 1.7174 12.0268 10.8619 -4.3366
448 1 2.5761 13.7442 12.2196 -4.3366
449 1 3.4348 15.4616 10.8619 -4.3366
450 1 4.2935 8.59201 12.2196 -4.3366
451 1 2.5761 9.45071 13.5773 -4.3366
452 1 3.4348 11.1681 14.935 -4.3366
453 1 4.2935 12.8855 13.5773 -4.3366
454 1 5.1522 14.6029 14.935 -4.3366
455 1 6.0109 16.3203 13.5773 -4.3366
456 1 6.86961 9.45071 14.935 -4.3366
457 1 0.858701 14.6029 13.5773 -4.3366
458 1 1.7174 16.3203 14.935 -4.3366
459 1 5.1522 10.3094 10.8619 -4.3366
460 1 6.0109 12.0268 12.2196 -4.3366
461 1 6.86961 13.7442 10.8619 -4.3366
462 1 7.72831 15.4616 12.2196 -4.3366
463 1 7.72831 11.1681 13.5773 -4.3366
464 1 5.01367e-16 12.8855 14.935 -4.3366
465 1 0 8.59201 16.2928 -4.3366
466 1 0.858701 10.3094 17.6505 -4.3366
467 1 1.7174 12.0268 16.2928 -4.3366
468 1 2.5761 13.7442 17.6505 -4.3366
469 1 3.4348 15.4616 16.2928 -4.3366
470 1 4.2935 8.59201 17.6505 -4.3366
471 1 2.5761 9.45071 19.0082 -4.3366
472 1 3.4348 11.1681 20.3659 -4.3366
473 1 4.2935 12.8855 19.0082 -4.3366
474 1 5.1522 14.6029 20.3659 -4.3366
475 1 6.0109 16.3203 19.0082 -4.3366
476 1 6.86961 9.45071 20.3659 -4.3366
477 1 0.858701 14.6029 19.0082 -4.3366
478 1 1.7174 16.3203 20.3659 -4.3366
479 1 5.1522 10.3094 16.2928 -4.3366
480 1 6.0109 12.0268 17.6505 -4.3366
481 1 6.86961 13.7442 16.2928 -4.3366
482 1 7.72831 15.4616 17.6505 -4.3366
483 1 7.72831 11.1681 19.0082 -4.3366
484 1 5.01367e-16 12.8855 20.3659 -4.3366
485 1 0 8.59201 21.7237 -4.33658
486 1 0.862092 10.3067 23.0823 -4.33657
487 1 1.7174 12.0268 21.7237 -4.33657
488 1 2.57881 13.7422 23.0788 -4.33654
489 1 3.4348 15.4616 21.7237 -4.33659
490 1 4.29653 8.58972 23.0837 -4.33653
491 1 2.5777 9.44436 24.442 -4.3365
492 1 3.44408 11.1609 25.794 -4.3363
493 1 4.29646 12.881 24.4344 -4.3365
494 1 5.15725 14.6033 25.7822 -4.33618
495 1 6.01098 16.3247 24.4316 -4.33646
496 1 6.87436 9.44903 25.807 -4.33651
497 1 0.858623 14.5985 24.4316 -4.33646
498 1 1.71235 16.3199 25.7822 -4.33618
499 1 5.1522 10.3094 21.7237 -4.33657
500 1 6.01544 12.0239 23.0806 -4.33655
501 1 6.86961 13.7442 21.7237 -4.33658
502 1 7.72831 15.4616 23.0784 -4.3365
503 1 7.73122 11.1625 24.4405 -4.33654
504 1 0.00899529 12.8799 25.7925 -4.33648
505 1 0.00266687 8.59437 27.1735 -4.33638
506 1 0.861276 10.3209 28.5281 -4.33615
507 1 1.72853 12.0179 27.149 -4.33555
508 1 2.62007 13.7296 28.4868 -4.3325
509 1 3.4348 15.4616 27.1285 -4.33524
510 1 4.29127 8.59942 28.5232 -4.33622
511 1 2.58931 9.48011 29.889 -4.33453
512 1 3.44288 11.2161 31.2459 -4.27164
513 1 4.32788 12.9202 29.8922 -4.32186
514 1 5.14558 14.6891 31.2429 -4.29555
515 1 5.97326 16.3324 29.8041 -4.27119
516 1 6.84841 9.47921 31.2291 -4.19659
517 1 0.896347 14.5908 29.8041 -4.27119
518 1 1.72403 16.2341 31.2429 -4.29555
519 1 5.15792 10.3131 27.1639 -4.33637
520 1 6.01755 12.041 28.5138 -4.33519
521 1 6.87371 13.7433 27.1385 -4.33624
522 1 7.72831 15.4616 28.4884 -4.33299
523 1 7.72872 11.201 29.8804 -4.31165
524 1 8.5845 12.9561 31.2246 -4.32006
525 1 8.55574 8.59155 32.5718 -4.3035
526 1 0.552359 10.4411 33.8926 -4.60651
527 1 1.68085 12.0717 32.5837 -4.15608
528 1 2.77807 13.5964 34.0057 -4.15336
529 1 3.4348 15.4616 32.6563 -4.24794
530 1 4.34961 8.62483 33.8862 -4.11362
531 1 2.63925 9.86681 35.13 -4.44947
532 1 4.84589 11.8949 37.2294 -4.60652
533 1 4.19191 11.8031 34.7778 -3.62447
534 1 0.0561239 13.7113 37.2358 -4.11359
535 1 5.16242 16.2702 35.8274 -4.15147
536 1 7.07156 8.73969 37.1164 -4.15341
537 1 1.70718 14.653 35.8274 -4.15147
538 1 3.4348 15.4616 37.1922 -4.30904
539 1 5.19932 10.4796 32.6764 -4.60057
540 1 7.04652 11.8645 33.5895 -3.66017
541 1 7.0667 14.3452 32.5523 -4.36162
542 1 6.76162 14.7587 34.9562 -3.84097
543 1 8.48535 10.533 36.3442 -3.62449
544 1 2.75303 10.4716 37.5325 -3.66009
Egb = 1.08145385404761
