ITEM: TIMESTEP
0
ITEM: NUMBER OF ATOMS
471
ITEM: BOX BOUNDS pp pp ss
0.0000000000000000e+00 8.1579593036494149e+00
0.0000000000000000e+00 8.8812611717030396e+00
-1.0026682790216613e-02 1.0042982056374944e+02
ITEM: ATOMS id type x y z c_eng
1 1 0.516804 4.35259 52.2835 -8.13156
2 1 3.61507 4.47005 52.8024 -8.89383
3 1 4.49524 4.45682 55.5335 -8.8747
4 1 5.43482 4.45074 58.1188 -8.91524
5 1 6.34498 4.44901 60.6819 -8.90078
6 1 7.25156 4.44844 63.245 -8.89989
7 1 2.72672e-05 4.44828 65.8085 -8.89994
8 1 0.90645 4.44823 68.3723 -8.89997
9 1 1.81288 4.44823 70.9361 -8.89998
10 1 3.03461 6.67101 55.1069 -8.73259
11 1 3.92367 6.67356 57.6736 -8.88514
12 1 4.83302 6.66974 60.2496 -8.90319
13 1 5.74049 6.66878 62.8165 -8.90084
14 1 6.64715 6.66859 65.381 -8.90016
15 1 7.55365 6.66855 67.9449 -8.90002
16 1 0.302145 6.66854 70.5087 -8.89999
17 1 1.20859 6.66854 73.0726 -8.89998
18 1 1.86975 7.7774 50.2099 -8.41109
19 1 5.19796 6.68135 53.36 -8.87044
20 1 6.02989 6.67118 55.9911 -8.89847
21 1 6.94925 6.67046 58.544 -8.89792
22 1 7.85556 6.66915 61.1078 -8.89868
23 1 0.604201 6.66869 63.6718 -8.8999
24 1 1.51071 6.66857 66.2357 -8.89999
25 1 2.41717 6.66854 68.7995 -8.89998
26 1 4.12981 6.60695 50.9372 -8.59194
27 1 6.61384 4.43464 53.9354 -8.51973
28 1 7.55374 4.45104 56.4304 -8.8606
29 1 0.302388 4.44983 58.975 -8.89039
30 1 1.20871 4.44875 61.5361 -8.89953
31 1 2.11509 4.44835 64.0994 -8.89996
32 1 5.97939 4.49864 51.3621 -8.53826
33 1 8.11312 6.66361 54.2209 -8.89889
34 1 0.90765 6.67458 56.8175 -8.91265
35 1 1.81241 6.67057 59.3957 -8.90645
36 1 7.32913 2.21007 51.4793 -8.54783
37 1 1.53229 4.45523 54.7347 -8.94639
38 1 2.41789 4.45257 57.2748 -8.89036
39 1 2.07059 6.64006 52.6237 -8.69788
40 1 3.32386 4.45013 59.8297 -8.89201
41 1 4.23021 4.44874 62.3905 -8.89887
42 1 5.13653 4.44833 64.9539 -8.89986
43 1 6.04294 4.44825 67.5177 -8.89997
44 1 6.94938 4.44823 70.0815 -8.89998
45 1 7.85581 4.44822 72.6453 -8.89998
46 1 2.7192 6.66902 61.9621 -8.90115
47 1 3.62572 6.66864 64.5264 -8.90007
48 1 4.53219 6.66856 67.0903 -8.9
49 1 5.43864 6.66854 69.6541 -8.89998
50 1 6.34508 6.66854 72.218 -8.89998
51 1 3.02149 4.44825 66.6631 -8.89996
52 1 3.92791 4.44823 69.2269 -8.89997
53 1 4.83435 4.44822 71.7907 -8.89998
54 1 3.32361 6.66854 71.3634 -8.89998
55 1 2.71932 4.44822 73.4999 -8.89998
56 1 3.62576 4.44822 76.0637 -8.89998
57 1 4.5322 4.44822 78.6275 -8.89998
58 1 5.43864 4.44822 81.1912 -8.89998
59 1 6.34508 4.44822 83.755 -8.89998
60 1 7.25152 4.44822 86.3188 -8.89998
61 1 1.81772e-06 4.44822 88.8826 -8.89998
62 1 0.906442 4.44822 91.4464 -8.89998
63 1 1.81288 4.44822 94.0102 -8.89998
64 1 3.02147 6.66854 78.2002 -8.89998
65 1 3.92791 6.66854 80.7639 -8.89998
66 1 4.83435 6.66854 83.3277 -8.89998
67 1 5.74079 6.66854 85.8915 -8.89998
68 1 6.64723 6.66854 88.4553 -8.89998
69 1 7.55367 6.66854 91.0191 -8.89998
70 1 0.302148 6.66854 93.5829 -8.89998
71 1 1.20859 6.66854 96.1467 -8.91055
72 1 4.23005 6.66854 73.9272 -8.89998
73 1 5.13649 6.66854 76.491 -8.89998
74 1 6.04293 6.66854 79.0548 -8.89998
75 1 6.94937 6.66854 81.6185 -8.89998
76 1 7.85581 6.66854 84.1823 -8.89998
77 1 0.604295 6.66854 86.7461 -8.89998
78 1 1.51074 6.66854 89.3099 -8.89998
79 1 2.41717 6.66854 91.8737 -8.89998
80 1 5.74079 4.44822 74.3545 -8.89998
81 1 6.64723 4.44822 76.9183 -8.89998
82 1 7.55367 4.44822 79.482 -8.89998
83 1 0.302148 4.44822 82.0458 -8.89998
84 1 1.20859 4.44822 84.6096 -8.89998
85 1 2.11503 4.44822 87.1734 -8.89998
86 1 7.25152 6.66854 74.7818 -8.89998
87 1 1.81772e-06 6.66854 77.3456 -8.89998
88 1 0.906442 6.66854 79.9093 -8.89998
89 1 1.81288 6.66854 82.4731 -8.89998
90 1 0.604295 4.44822 75.2091 -8.89998
91 1 1.51074 4.44822 77.7729 -8.89998
92 1 2.41717 4.44822 80.3366 -8.89998
93 1 2.11503 6.66854 75.6364 -8.89998
94 1 3.32361 4.44822 82.9004 -8.89998
95 1 4.23005 4.44822 85.4642 -8.89998
96 1 5.13649 4.44822 88.028 -8.89998
97 1 6.04293 4.44822 90.5918 -8.89998
98 1 6.94937 4.44822 93.1556 -8.89998
99 1 7.85581 4.44822 95.7194 -8.89999
100 1 2.71932 6.66854 85.0369 -8.89998
101 1 3.62576 6.66854 87.6007 -8.89998
102 1 4.5322 6.66854 90.1645 -8.89998
103 1 5.43864 6.66854 92.7283 -8.89998
104 1 6.34508 6.66854 95.2921 -8.89998
105 1 3.02147 4.44822 89.7372 -8.89998
106 1 3.92791 4.44822 92.301 -8.89998
107 1 4.83435 4.44822 94.8648 -8.89998
108 1 3.32361 6.66854 94.4375 -8.89998
109 1 2.71932 4.44822 96.574 -8.91611
110 1 3.62576 4.44822 99.1378 -7.83773
111 1 4.23005 6.66854 97.0013 -8.92667
112 1 5.13649 6.66854 99.5651 -7.85861
113 1 5.74079 4.44822 97.4286 -8.93195
114 1 6.64723 4.44822 99.9924 -7.60504
115 1 7.25152 6.66854 97.8559 -8.94308
116 1 1.81772e-06 6.66854 100.42 -6.80401
117 1 0.604295 4.44822 98.2832 -8.6482
118 1 2.11503 6.66854 98.7105 -8.16469
119 1 3.5514 0.00675854 52.6566 -8.99722
120 1 4.51008 8.8803 55.4843 -8.87505
121 1 5.43396 0.00490351 58.1079 -8.91886
122 1 6.34482 0.0067315 60.6797 -8.90261
123 1 7.25142 0.00736262 63.2445 -8.9003
124 1 8.15794 0.00753778 65.8084 -8.90002
125 1 0.906437 0.00758008 68.3723 -8.89998
126 1 1.81288 0.00758944 70.9361 -8.89998
127 1 3.04947 2.22699 55.1829 -8.69041
128 1 3.93237 2.22421 57.7027 -8.86733
129 1 4.83516 2.22672 60.2559 -8.89907
130 1 5.74095 2.22765 62.8179 -8.89996
131 1 6.64726 2.22785 65.3813 -8.89996
132 1 7.55368 2.2279 67.945 -8.89998
133 1 0.302152 2.22791 70.5088 -8.89998
134 1 1.20859 2.22791 73.0726 -8.89998
135 1 4.12981 0.0665897 49.4826 -8.59194
136 1 5.19397 2.21244 53.4491 -8.87315
137 1 6.03719 2.22363 56.0066 -8.90909
138 1 6.95185 2.22555 58.5509 -8.89589
139 1 7.85646 2.22724 61.1098 -8.8976
140 1 0.604456 2.22776 63.6723 -8.89956
141 1 1.51078 2.22788 66.2358 -8.89992
142 1 2.41719 2.2279 68.7996 -8.89997
143 1 2.11884 4.40456 47.7022 -8.31194
144 1 6.6544 0.0113296 53.8936 -8.49169
145 1 7.55583 0.00220452 56.4075 -8.87235
146 1 0.302541 0.00589552 58.9684 -8.89678
147 1 1.20844 0.00707282 61.5346 -8.90121
148 1 2.11499 0.00746498 64.0991 -8.90024
149 1 5.95708 8.8215 51.3427 -8.59335
150 1 8.11943 2.22299 54.2645 -8.97636
151 1 0.910723 2.22277 56.8327 -8.89645
152 1 1.81288 2.22595 59.4002 -8.90257
153 1 0.544827 0.0453365 52.1743 -8.71139
154 1 1.53193 0.00466756 54.6625 -8.93356
155 1 2.41952 0.0032361 57.2535 -8.89586
156 1 2.11884 2.26897 52.7176 -8.31194
157 1 3.32334 0.00583091 59.8244 -8.89659
158 1 4.22995 0.00708136 62.3895 -8.89981
159 1 5.13644 0.00747803 64.9537 -8.90002
160 1 6.04292 0.00756747 67.5176 -8.9
161 1 6.94937 0.00758684 70.0814 -8.89999
162 1 7.85581 0.00759241 72.6453 -8.89998
163 1 2.71946 2.22746 61.9633 -8.89992
164 1 3.62582 2.22781 64.5267 -8.89974
165 1 4.53222 2.22789 67.0904 -8.89994
166 1 5.43864 2.2279 69.6542 -8.89997
167 1 6.34508 2.22791 72.218 -8.89998
168 1 3.02146 0.00756234 66.663 -8.90002
169 1 3.9279 0.00758552 69.2268 -8.89999
170 1 4.83435 0.00759067 71.7907 -8.89998
171 1 3.32362 2.22791 71.3634 -8.89998
172 1 2.71932 0.00759241 73.4999 -8.89998
173 1 3.62576 0.00759241 76.0637 -8.89998
174 1 4.5322 0.00759241 78.6275 -8.89998
175 1 5.43864 0.00759241 81.1912 -8.89998
176 1 6.34508 0.00759241 83.755 -8.89998
177 1 7.25152 0.00759241 86.3188 -8.89998
178 1 1.81772e-06 0.00759241 88.8826 -8.89998
179 1 0.906442 0.00759241 91.4464 -8.89998
180 1 1.81288 0.00759241 94.0102 -8.89998
181 1 3.02147 2.22791 78.2002 -8.89998
182 1 3.92791 2.22791 80.7639 -8.89998
183 1 4.83435 2.22791 83.3277 -8.89998
184 1 5.74079 2.22791 85.8915 -8.89998
185 1 6.64723 2.22791 88.4553 -8.89998
186 1 7.55367 2.22791 91.0191 -8.89998
187 1 0.302148 2.22791 93.5829 -8.89998
188 1 1.20859 2.22791 96.1467 -8.91055
189 1 4.23005 2.22791 73.9272 -8.89998
190 1 5.13649 2.22791 76.491 -8.89998
191 1 6.04293 2.22791 79.0548 -8.89998
192 1 6.94937 2.22791 81.6185 -8.89998
193 1 7.85581 2.22791 84.1823 -8.89998
194 1 0.604295 2.22791 86.7461 -8.89998
195 1 1.51074 2.22791 89.3099 -8.89998
196 1 2.41717 2.22791 91.8737 -8.89998
197 1 5.74079 0.00759241 74.3545 -8.89998
198 1 6.64723 0.00759241 76.9183 -8.89998
199 1 7.55367 0.00759241 79.482 -8.89998
200 1 0.302148 0.00759241 82.0458 -8.89998
201 1 1.20859 0.00759241 84.6096 -8.89998
202 1 2.11503 0.00759241 87.1734 -8.89998
203 1 7.25152 2.22791 74.7818 -8.89998
204 1 1.81772e-06 2.22791 77.3456 -8.89998
205 1 0.906442 2.22791 79.9093 -8.89998
206 1 1.81288 2.22791 82.4731 -8.89998
207 1 0.604295 0.00759241 75.2091 -8.89998
208 1 1.51074 0.00759241 77.7729 -8.89998
209 1 2.41717 0.00759241 80.3366 -8.89998
210 1 2.11503 2.22791 75.6364 -8.89998
211 1 3.32361 0.00759241 82.9004 -8.89998
212 1 4.23005 0.00759241 85.4642 -8.89998
213 1 5.13649 0.00759241 88.028 -8.89998
214 1 6.04293 0.00759241 90.5918 -8.89998
215 1 6.94937 0.00759241 93.1556 -8.89998
216 1 7.85581 0.00759241 95.7194 -8.89999
217 1 2.71932 2.22791 85.0369 -8.89998
218 1 3.62576 2.22791 87.6007 -8.89998
219 1 4.5322 2.22791 90.1645 -8.89998
220 1 5.43864 2.22791 92.7283 -8.89998
221 1 6.34508 2.22791 95.2921 -8.89998
222 1 3.02147 0.00759241 89.7372 -8.89998
223 1 3.92791 0.00759241 92.301 -8.89998
224 1 4.83435 0.00759241 94.8648 -8.89998
225 1 3.32361 2.22791 94.4375 -8.89998
226 1 2.71932 0.00759241 96.574 -8.91611
227 1 3.62576 0.00759241 99.1378 -7.83773
228 1 4.23005 2.22791 97.0013 -8.92667
229 1 5.13649 2.22791 99.5651 -7.85861
230 1 5.74079 0.00759241 97.4286 -8.93195
231 1 6.64723 0.00759241 99.9924 -7.60504
232 1 7.25152 2.22791 97.8559 -8.94308
233 1 1.81772e-06 2.22791 100.42 -6.80401
234 1 0.604295 0.00759241 98.2832 -8.6482
235 1 2.11503 2.22791 98.7105 -8.16469
236 1 0 0.005 5e-05 -6.80401
237 1 2.11503 0.005 1.70925 -8.16469
238 1 4.23005 0.005 3.41845 -8.92667
239 1 6.34508 0.005 5.12765 -8.89998
240 1 3.62576 2.22532 1.28195 -7.83773
241 1 5.74079 2.22532 2.99115 -8.93195
242 1 7.85581 2.22532 4.70035 -8.89999
243 1 0.604293 2.22532 2.13655 -8.6482
244 1 2.71932 2.22532 3.84575 -8.91611
245 1 4.83435 2.22532 5.55495 -8.89998
246 1 6.94937 2.22532 7.26415 -8.89998
247 1 1.20859 0.005 4.27305 -8.91055
248 1 3.32361 0.005 5.98225 -8.89998
249 1 5.43864 0.005 7.69145 -8.89998
250 1 7.55367 0.005 9.40065 -8.89998
251 1 1.81288 2.22532 6.40955 -8.89998
252 1 3.92791 2.22532 8.11875 -8.89998
253 1 6.04293 2.22532 9.82795 -8.89998
254 1 0.302147 0.005 6.83685 -8.89998
255 1 2.41717 0.005 8.54605 -8.89998
256 1 4.5322 0.005 10.2552 -8.89998
257 1 6.64723 0.005 11.9644 -8.89998
258 1 0.90644 2.22532 8.97335 -8.89998
259 1 3.02147 2.22532 10.6825 -8.89998
260 1 5.13649 2.22532 12.3917 -8.89998
261 1 7.25152 2.22532 14.1009 -8.89998
262 1 1.51073 0.005 11.1098 -8.89998
263 1 3.62576 0.005 12.819 -8.89998
264 1 5.74079 0.005 14.5282 -8.89998
265 1 7.85581 0.005 16.2374 -8.89998
266 1 0 2.22532 11.5371 -8.89998
267 1 2.11503 2.22532 13.2463 -8.89998
268 1 4.23005 2.22532 14.9555 -8.89998
269 1 6.34508 2.22532 16.6647 -8.89998
270 1 0.604293 0.005 13.6736 -8.89998
271 1 2.71932 0.005 15.3828 -8.89998
272 1 4.83435 0.005 17.092 -8.89998
273 1 6.94937 0.005 18.8012 -8.89998
274 1 1.20859 2.22532 15.8101 -8.89998
275 1 3.32361 2.22532 17.5193 -8.89998
276 1 5.43864 2.22532 19.2285 -8.89998
277 1 7.55367 2.22532 20.9377 -8.89998
278 1 1.81288 0.005 17.9466 -8.89998
279 1 3.92791 0.005 19.6558 -8.89998
280 1 6.04293 0.005 21.365 -8.89998
281 1 0.302147 2.22532 18.3739 -8.89998
282 1 2.41717 2.22532 20.0831 -8.89998
283 1 4.5322 2.22532 21.7923 -8.89998
284 1 0.90644 0.005 20.5104 -8.89998
285 1 3.02147 0.005 22.2196 -8.89998
286 1 1.51073 2.22532 22.6469 -8.89998
287 1 5.13649 0.005 0.85465 -7.85861
288 1 7.25152 0.005 2.56385 -8.94308
289 1 6.64723 2.22532 0.42735 -7.60504
290 1 0 0.005 23.0742 -8.89998
291 1 2.11503 0.005 24.7834 -8.89998
292 1 4.23005 0.005 26.4926 -8.89998
293 1 6.34508 0.005 28.2018 -8.89998
294 1 3.62576 2.22532 24.3561 -8.89998
295 1 5.74079 2.22532 26.0653 -8.89998
296 1 7.85581 2.22532 27.7745 -8.89998
297 1 0.604293 2.22532 25.2107 -8.89998
298 1 2.71932 2.22532 26.9199 -8.89998
299 1 4.83435 2.22531 28.6291 -8.89998
300 1 6.94937 2.22531 30.3383 -8.89998
301 1 1.20859 0.005 27.3472 -8.89998
302 1 3.32361 0.00499885 29.0564 -8.89998
303 1 5.43864 0.0049964 30.7656 -8.89998
304 1 7.55365 0.00499023 32.4749 -8.90002
305 1 1.81288 2.22531 29.4837 -8.89998
306 1 3.92791 2.22531 31.1929 -8.89997
307 1 6.04294 2.22529 32.9021 -8.89997
308 1 0.302144 0.00499807 29.911 -8.89999
309 1 2.41717 0.00499407 31.6203 -8.89998
310 1 4.53218 0.00498066 33.3295 -8.9
311 1 6.64715 0.0049513 35.0388 -8.90016
312 1 0.906449 2.2253 32.0475 -8.89997
313 1 3.02149 2.22529 33.7567 -8.89996
314 1 5.13653 2.2252 35.4659 -8.89986
315 1 7.25156 2.2251 37.1748 -8.89989
316 1 1.51071 0.0049686 34.1841 -8.89999
317 1 3.62572 0.0048979 35.8934 -8.90007
318 1 5.74049 0.00475622 37.6033 -8.90084
319 1 7.85556 0.00438268 39.312 -8.89868
320 1 2.66624e-05 2.22526 34.6113 -8.89994
321 1 2.11509 2.22518 36.3204 -8.89996
322 1 4.23021 2.22479 38.0293 -8.89887
323 1 6.34498 2.22453 39.7379 -8.90078
324 1 0.604201 0.00484913 36.748 -8.8999
325 1 2.7192 0.00451754 38.4577 -8.90115
326 1 4.83302 0.00380143 40.1702 -8.90319
327 1 6.94925 0.00307895 41.8758 -8.89792
328 1 1.20871 2.22478 38.8837 -8.89953
329 1 3.32386 2.22341 40.5901 -8.89201
330 1 5.43482 2.2228 42.3009 -8.91524
331 1 7.55374 2.22249 43.9894 -8.8606
332 1 1.81242 0.0029646 41.0241 -8.90645
333 1 3.92367 8.88124 42.7461 -8.88514
334 1 6.02989 0.00235389 44.4286 -8.89847
335 1 0.302388 2.22371 41.4448 -8.89039
336 1 2.41789 2.22097 43.145 -8.89036
337 1 4.49524 2.21672 44.8863 -8.8747
338 1 0.90765 8.88022 43.6023 -8.91265
339 1 3.03461 0.0025267 45.3129 -8.73259
340 1 1.53229 2.21831 45.6851 -8.94639
341 1 5.13649 0.005 23.9288 -8.89998
342 1 7.25152 0.005 25.638 -8.89998
343 1 6.64723 2.22532 23.5015 -8.89998
344 1 8.11312 0.00992372 46.1988 -8.89889
345 1 2.07059 0.0334768 47.7961 -8.69788
346 1 5.95708 6.7333 49.0771 -8.59335
347 1 5.19796 8.87345 47.0598 -8.87044
348 1 1.84501 5.13921 50.2107 -7.96316
349 1 1.84501 1.53433 50.2091 -7.96316
350 1 4.23615 2.27748 51.0051 -8.25126
351 1 6.65441 6.66221 46.5261 -8.49169
352 1 5.97939 2.1749 49.0577 -8.53826
353 1 6.61384 2.2389 46.4844 -8.51973
354 1 0 4.44563 5e-05 -6.80401
355 1 2.11503 4.44563 1.70925 -8.16469
356 1 4.23005 4.44563 3.41845 -8.92667
357 1 6.34508 4.44563 5.12765 -8.89998
358 1 3.62576 6.66595 1.28195 -7.83773
359 1 5.74079 6.66595 2.99115 -8.93195
360 1 7.85581 6.66595 4.70035 -8.89999
361 1 0.604293 6.66595 2.13655 -8.6482
362 1 2.71932 6.66595 3.84575 -8.91611
363 1 4.83435 6.66595 5.55495 -8.89998
364 1 6.94937 6.66595 7.26415 -8.89998
365 1 1.20859 4.44563 4.27305 -8.91055
366 1 3.32361 4.44563 5.98225 -8.89998
367 1 5.43864 4.44563 7.69145 -8.89998
368 1 7.55367 4.44563 9.40065 -8.89998
369 1 1.81288 6.66595 6.40955 -8.89998
370 1 3.92791 6.66595 8.11875 -8.89998
371 1 6.04293 6.66595 9.82795 -8.89998
372 1 0.302147 4.44563 6.83685 -8.89998
373 1 2.41717 4.44563 8.54605 -8.89998
374 1 4.5322 4.44563 10.2552 -8.89998
375 1 6.64723 4.44563 11.9644 -8.89998
376 1 0.90644 6.66595 8.97335 -8.89998
377 1 3.02147 6.66595 10.6825 -8.89998
378 1 5.13649 6.66595 12.3917 -8.89998
379 1 7.25152 6.66595 14.1009 -8.89998
380 1 1.51073 4.44563 11.1098 -8.89998
381 1 3.62576 4.44563 12.819 -8.89998
382 1 5.74079 4.44563 14.5282 -8.89998
383 1 7.85581 4.44563 16.2374 -8.89998
384 1 0 6.66595 11.5371 -8.89998
385 1 2.11503 6.66595 13.2463 -8.89998
386 1 4.23005 6.66595 14.9555 -8.89998
387 1 6.34508 6.66595 16.6647 -8.89998
388 1 0.604293 4.44563 13.6736 -8.89998
389 1 2.71932 4.44563 15.3828 -8.89998
390 1 4.83435 4.44563 17.092 -8.89998
391 1 6.94937 4.44563 18.8012 -8.89998
392 1 1.20859 6.66595 15.8101 -8.89998
393 1 3.32361 6.66595 17.5193 -8.89998
394 1 5.43864 6.66595 19.2285 -8.89998
395 1 7.55367 6.66595 20.9377 -8.89998
396 1 1.81288 4.44563 17.9466 -8.89998
397 1 3.92791 4.44563 19.6558 -8.89998
398 1 6.04293 4.44563 21.365 -8.89998
399 1 0.302147 6.66595 18.3739 -8.89998
400 1 2.41717 6.66595 20.0831 -8.89998
401 1 4.5322 6.66595 21.7923 -8.89998
402 1 0.90644 4.44563 20.5104 -8.89998
403 1 3.02147 4.44563 22.2196 -8.89998
404 1 1.51073 6.66595 22.6469 -8.89998
405 1 5.13649 4.44563 0.85465 -7.85861
406 1 7.25152 4.44563 2.56385 -8.94308
407 1 6.64723 6.66595 0.42735 -7.60504
408 1 0 4.44563 23.0742 -8.89998
409 1 2.11503 4.44563 24.7834 -8.89998
410 1 4.23005 4.44563 26.4926 -8.89998
411 1 6.34508 4.44563 28.2018 -8.89998
412 1 3.62576 6.66595 24.3561 -8.89998
413 1 5.74079 6.66595 26.0653 -8.89998
414 1 7.85581 6.66595 27.7745 -8.89998
415 1 0.604293 6.66595 25.2107 -8.89998
416 1 2.71932 6.66595 26.9199 -8.89998
417 1 4.83435 6.66595 28.6291 -8.89998
418 1 6.94937 6.66595 30.3383 -8.89999
419 1 1.20859 4.44563 27.3472 -8.89998
420 1 3.32362 4.44563 29.0564 -8.89998
421 1 5.43864 4.44563 30.7656 -8.89997
422 1 7.55368 4.44564 32.4748 -8.89998
423 1 1.81288 6.66595 29.4837 -8.89998
424 1 3.9279 6.66595 31.1929 -8.89999
425 1 6.04292 6.66597 32.9022 -8.9
426 1 0.30215 4.44563 29.911 -8.89998
427 1 2.41718 4.44564 31.6202 -8.89997
428 1 4.53222 4.44565 33.3294 -8.89994
429 1 6.64726 4.44568 35.0385 -8.89996
430 1 0.906436 6.66596 32.0475 -8.89998
431 1 3.02146 6.66598 33.7568 -8.90002
432 1 5.13644 6.66606 35.4661 -8.90002
433 1 7.25142 6.66618 37.1753 -8.9003
434 1 1.51078 4.44566 34.184 -8.89992
435 1 3.62582 4.44573 35.8931 -8.89974
436 1 5.74095 4.44589 37.6019 -8.89996
437 1 7.85647 4.4463 39.31 -8.8976
438 1 8.15794 6.666 34.6114 -8.90002
439 1 2.11499 6.66607 36.3207 -8.90024
440 1 4.22995 6.66646 38.0303 -8.89981
441 1 6.34482 6.66681 39.7401 -8.90261
442 1 0.604456 4.44578 36.7475 -8.89956
443 1 2.71946 4.44608 38.4565 -8.89992
444 1 4.83516 4.44682 40.1639 -8.89907
445 1 6.95185 4.44799 41.8688 -8.89589
446 1 1.20844 6.66646 38.8852 -8.90121
447 1 3.32334 6.66771 40.5954 -8.89659
448 1 5.43396 6.66863 42.3119 -8.91886
449 1 7.55583 6.67133 44.0123 -8.87235
450 1 1.81288 4.44758 41.0195 -8.90257
451 1 3.93237 4.44932 42.7171 -8.86733
452 1 6.03719 4.44991 44.4131 -8.90909
453 1 0.302541 6.66764 41.4514 -8.89678
454 1 2.41952 6.6703 43.1663 -8.89586
455 1 4.51008 6.67449 44.9355 -8.87505
456 1 0.910723 4.45076 43.5871 -8.89645
457 1 3.04947 4.44655 45.2369 -8.69041
458 1 1.53193 6.66887 45.7573 -8.93356
459 1 5.13649 4.44563 23.9288 -8.89998
460 1 7.25152 4.44563 25.638 -8.89998
461 1 6.64723 6.66595 23.5015 -8.89998
462 1 8.11943 4.45055 46.1553 -8.97636
463 1 3.61507 2.20349 47.6174 -8.89383
464 1 4.23615 4.39606 49.4147 -8.25126
465 1 3.5514 6.66678 47.7632 -8.99722
466 1 7.32913 4.46347 48.9405 -8.54783
467 1 7.56221 0.0239834 49.1328 -8.75225
468 1 7.56221 6.64955 51.287 -8.75225
469 1 5.19398 4.4611 46.9707 -8.87315
470 1 0.516804 2.32095 48.1363 -8.13156
471 1 0.544827 6.6282 48.2455 -8.71139
Egb = 2.73154631318894
