ITEM: TIMESTEP
0
ITEM: NUMBER OF ATOMS
236
ITEM: BOX BOUNDS pp pp ss
0.0000000000000000e+00 8.1579593036494149e+00
0.0000000000000000e+00 4.4406305858515198e+00
-1.0164277105511370e-02 1.0077228911022334e+02
ITEM: ATOMS id type x y z c_eng
1 1 0.344432 1.13071 50.5947 -7.64676
2 1 2.08242 2.23547 53.1151 -8.91434
3 1 2.99877 2.2547 55.8495 -8.89411
4 1 3.92315 2.2565 58.4568 -8.91621
5 1 4.83386 2.25648 61.0236 -8.90187
6 1 5.74073 2.25643 63.5872 -8.90023
7 1 6.64724 2.25642 66.1509 -8.9
8 1 7.55368 2.25642 68.7146 -8.89997
9 1 0.302157 2.25642 71.2784 -8.89998
10 1 1.53085 0.0335489 55.4845 -8.74384
11 1 2.41569 0.0354609 58.0237 -8.87854
12 1 3.32275 0.0360844 60.5941 -8.90282
13 1 4.2298 0.0361136 63.1594 -8.90063
14 1 5.13644 0.0361067 65.7235 -8.90012
15 1 6.04293 0.0361034 68.2873 -8.90001
16 1 6.94938 0.0361019 70.8511 -8.89998
17 1 7.85582 0.0361008 73.4149 -8.89998
18 1 2.62825 0.0165222 51.3408 -8.25966
19 1 3.68555 0.0356632 53.7583 -8.92086
20 1 4.52524 0.037098 56.3424 -8.90295
21 1 5.43933 0.0364217 58.8916 -8.89822
22 1 6.34535 0.0361496 61.4518 -8.89871
23 1 7.25163 0.036107 64.0146 -8.89972
24 1 4.16968e-05 0.0361033 66.5781 -8.89993
25 1 0.906457 0.0361025 69.1419 -8.89997
26 1 4.43521 2.26814 51.7155 -8.5832
27 1 5.14018 2.26227 54.2595 -8.56208
28 1 6.04592 2.25802 56.7679 -8.8741
29 1 6.95055 2.25656 59.3163 -8.89403
30 1 7.85621 2.25642 61.8781 -8.9
31 1 0.604403 2.25642 64.4416 -8.89994
32 1 5.8953 0.0577411 51.7843 -8.57106
33 1 6.60269 0.0442905 54.6006 -8.93448
34 1 7.55735 0.0362924 57.1717 -8.90314
35 1 0.302866 0.03604 59.7403 -8.90442
36 1 7.17983 2.29522 52.5441 -8.30439
37 1 0.0122891 2.25563 55.0321 -8.95942
38 1 0.908675 2.25596 57.604 -8.89771
39 1 0.566466 0.027303 53.0147 -8.3694
40 1 1.8129 2.25629 60.1678 -8.89222
41 1 2.71924 2.25641 62.7319 -8.89962
42 1 3.62571 2.25642 65.2961 -8.9
43 1 4.53219 2.25642 67.86 -8.9
44 1 5.43864 2.25642 70.4238 -8.89999
45 1 6.34509 2.25642 72.9876 -8.89998
46 1 1.20875 0.03608 62.3048 -8.89989
47 1 2.11506 0.0361013 64.8688 -8.89982
48 1 3.02147 0.0361034 67.4326 -8.89996
49 1 3.92791 0.0361024 69.9965 -8.89998
50 1 4.83435 0.0361008 72.5603 -8.89998
51 1 1.51076 2.25642 67.0054 -8.89995
52 1 2.41718 2.25642 69.5692 -8.89997
53 1 3.32362 2.25642 72.133 -8.89998
54 1 1.81289 0.0361016 71.7057 -8.89998
55 1 1.20859 2.25642 73.8422 -8.89998
56 1 2.11503 2.25642 76.406 -8.89998
57 1 3.02147 2.25642 78.9698 -8.89998
58 1 3.92791 2.25642 81.5336 -8.89998
59 1 4.83435 2.25642 84.0974 -8.89998
60 1 5.74079 2.25642 86.6612 -8.89998
61 1 6.64723 2.25642 89.225 -8.89998
62 1 7.55367 2.25642 91.7888 -8.89998
63 1 0.302154 2.25642 94.3526 -8.89998
64 1 1.51074 0.0361008 78.5425 -8.89998
65 1 2.41718 0.0361008 81.1063 -8.89998
66 1 3.32362 0.0361008 83.6701 -8.89998
67 1 4.23006 0.0361008 86.2339 -8.89998
68 1 5.1365 0.0361008 88.7977 -8.89998
69 1 6.04294 0.0361008 91.3615 -8.89998
70 1 6.94938 0.0361008 93.9253 -8.89998
71 1 7.85582 0.0361008 96.4891 -8.91055
72 1 2.71933 0.0361008 74.2695 -8.89998
73 1 3.62577 0.0361008 76.8333 -8.89998
74 1 4.53221 0.0361008 79.3971 -8.89998
75 1 5.43865 0.0361008 81.9609 -8.89998
76 1 6.34509 0.0361008 84.5247 -8.89998
77 1 7.25153 0.0361008 87.0885 -8.89998
78 1 7.60458e-06 0.0361008 89.6523 -8.89998
79 1 0.906448 0.0361008 92.2161 -8.89998
80 1 4.23006 2.25642 74.6968 -8.89998
81 1 5.1365 2.25642 77.2606 -8.89998
82 1 6.04294 2.25642 79.8244 -8.89998
83 1 6.94938 2.25642 82.3882 -8.89998
84 1 7.85582 2.25642 84.952 -8.89998
85 1 0.604301 2.25642 87.5158 -8.89998
86 1 5.74079 0.0361008 75.1241 -8.89998
87 1 6.64723 0.0361008 77.6879 -8.89998
88 1 7.55367 0.0361008 80.2517 -8.89998
89 1 0.302154 0.0361008 82.8155 -8.89998
90 1 7.25153 2.25642 75.5514 -8.89998
91 1 7.60458e-06 2.25642 78.1152 -8.89998
92 1 0.906448 2.25642 80.679 -8.89998
93 1 0.604301 0.0361008 75.9787 -8.89998
94 1 1.81289 2.25642 83.2428 -8.89998
95 1 2.71933 2.25642 85.8066 -8.89998
96 1 3.62577 2.25642 88.3704 -8.89998
97 1 4.53221 2.25642 90.9342 -8.89998
98 1 5.43865 2.25642 93.498 -8.89998
99 1 6.34509 2.25642 96.0618 -8.89999
100 1 1.20859 0.0361008 85.3793 -8.89998
101 1 2.11503 0.0361008 87.9431 -8.89998
102 1 3.02147 0.0361008 90.5069 -8.89998
103 1 3.92791 0.0361008 93.0707 -8.89998
104 1 4.83435 0.0361008 95.6345 -8.89998
105 1 1.51074 2.25642 90.0796 -8.89998
106 1 2.41718 2.25642 92.6434 -8.89998
107 1 3.32362 2.25642 95.2072 -8.89998
108 1 1.81289 0.0361008 94.7799 -8.89998
109 1 1.20859 2.25642 96.9164 -8.91611
110 1 2.11503 2.25642 99.4802 -7.83773
111 1 2.71933 0.0361008 97.3437 -8.92667
112 1 3.62577 0.0361008 99.9075 -7.85861
113 1 4.23006 2.25642 97.771 -8.93195
114 1 5.1365 2.25642 100.335 -7.60504
115 1 5.74079 0.0361008 98.1983 -8.94308
116 1 6.64723 0.0361008 100.762 -6.80401
117 1 7.25153 2.25642 98.6256 -8.6482
118 1 0.604301 0.0361008 99.0529 -8.16469
119 1 0 0.005 5e-05 -6.80401
120 1 2.11503 0.005 1.70925 -8.16469
121 1 4.23005 0.005 3.41845 -8.92667
122 1 6.34508 0.005 5.12765 -8.89998
123 1 3.62576 2.22532 1.28195 -7.83773
124 1 5.74079 2.22532 2.99115 -8.93195
125 1 7.85581 2.22532 4.70035 -8.89999
126 1 0.604293 2.22532 2.13655 -8.6482
127 1 2.71932 2.22532 3.84575 -8.91611
128 1 4.83435 2.22532 5.55495 -8.89998
129 1 6.94937 2.22532 7.26415 -8.89998
130 1 1.20859 0.005 4.27305 -8.91055
131 1 3.32361 0.005 5.98225 -8.89998
132 1 5.43864 0.005 7.69145 -8.89998
133 1 7.55367 0.005 9.40065 -8.89998
134 1 1.81288 2.22532 6.40955 -8.89998
135 1 3.92791 2.22532 8.11875 -8.89998
136 1 6.04293 2.22532 9.82795 -8.89998
137 1 0.302147 0.005 6.83685 -8.89998
138 1 2.41717 0.005 8.54605 -8.89998
139 1 4.5322 0.005 10.2552 -8.89998
140 1 6.64723 0.005 11.9644 -8.89998
141 1 0.90644 2.22532 8.97335 -8.89998
142 1 3.02147 2.22532 10.6825 -8.89998
143 1 5.13649 2.22532 12.3917 -8.89998
144 1 7.25152 2.22532 14.1009 -8.89998
145 1 1.51073 0.005 11.1098 -8.89998
146 1 3.62576 0.005 12.819 -8.89998
147 1 5.74079 0.005 14.5282 -8.89998
148 1 7.85581 0.005 16.2374 -8.89998
149 1 0 2.22532 11.5371 -8.89998
150 1 2.11503 2.22532 13.2463 -8.89998
151 1 4.23005 2.22532 14.9555 -8.89998
152 1 6.34508 2.22532 16.6647 -8.89998
153 1 0.604293 0.005 13.6736 -8.89998
154 1 2.71932 0.005 15.3828 -8.89998
155 1 4.83435 0.005 17.092 -8.89998
156 1 6.94937 0.005 18.8012 -8.89998
157 1 1.20859 2.22532 15.8101 -8.89998
158 1 3.32361 2.22532 17.5193 -8.89998
159 1 5.43864 2.22532 19.2285 -8.89998
160 1 7.55367 2.22532 20.9377 -8.89998
161 1 1.81288 0.005 17.9466 -8.89998
162 1 3.92791 0.005 19.6558 -8.89998
163 1 6.04293 0.005 21.365 -8.89998
164 1 0.302147 2.22532 18.3739 -8.89998
165 1 2.41717 2.22532 20.0831 -8.89998
166 1 4.5322 2.22532 21.7923 -8.89998
167 1 0.90644 0.005 20.5104 -8.89998
168 1 3.02147 0.005 22.2196 -8.89998
169 1 1.51073 2.22532 22.6469 -8.89998
170 1 5.13649 0.005 0.85465 -7.85861
171 1 7.25152 0.005 2.56385 -8.94308
172 1 6.64723 2.22532 0.42735 -7.60504
173 1 0 0.005 23.0742 -8.89998
174 1 2.11503 0.005 24.7834 -8.89998
175 1 4.23005 0.005 26.4926 -8.89998
176 1 6.34508 0.005 28.2018 -8.89998
177 1 3.62576 2.22532 24.3561 -8.89998
178 1 5.74079 2.22532 26.0653 -8.89998
179 1 7.85581 2.22532 27.7745 -8.89998
180 1 0.604293 2.22532 25.2107 -8.89998
181 1 2.71932 2.22532 26.9199 -8.89998
182 1 4.83435 2.22531 28.6291 -8.89998
183 1 6.94937 2.22531 30.3383 -8.89998
184 1 1.20859 0.005 27.3472 -8.89998
185 1 3.32361 0.00499919 29.0564 -8.89998
186 1 5.43864 0.00499846 30.7656 -8.89999
187 1 7.55367 0.00499784 32.4748 -8.89997
188 1 1.81288 2.22531 29.4837 -8.89998
189 1 3.9279 2.22531 31.193 -8.89998
190 1 6.04292 2.22531 32.9021 -8.90001
191 1 0.30215 0.00499897 29.911 -8.89998
192 1 2.41718 0.00499823 31.6202 -8.89997
193 1 4.53218 0.00499697 33.3295 -8.9
194 1 6.64723 0.00499571 35.0386 -8.9
195 1 0.906451 2.22531 32.0475 -8.89997
196 1 3.02146 2.22531 33.7568 -8.89996
197 1 5.13644 2.22531 35.466 -8.90012
198 1 7.25162 2.22531 37.1748 -8.89972
199 1 1.51076 0.00499789 34.1841 -8.89995
200 1 3.62571 0.00499559 35.8934 -8.9
201 1 5.74072 0.00498495 37.6022 -8.90023
202 1 7.8562 0.00499949 39.3113 -8.9
203 1 3.61405e-05 2.22531 34.6113 -8.89993
204 1 2.11505 2.22531 36.3207 -8.89982
205 1 4.2298 2.2253 38.03 -8.90063
206 1 6.34535 2.22527 39.7376 -8.89871
207 1 0.604398 0.00500058 36.7478 -8.89994
208 1 2.71924 0.00500705 38.4575 -8.89962
209 1 4.83386 0.0049402 40.1658 -8.90187
210 1 6.95054 0.00485191 41.8731 -8.89403
211 1 1.20875 2.22534 38.8847 -8.89989
212 1 3.32275 2.22533 40.5953 -8.90282
213 1 5.43933 2.225 42.2978 -8.89822
214 1 7.55735 2.22512 44.0178 -8.90314
215 1 1.8129 0.0051269 41.0216 -8.89222
216 1 3.92315 0.0049191 42.7326 -8.91621
217 1 6.04591 0.00339757 44.4215 -8.8741
218 1 0.302863 2.22538 41.4492 -8.90442
219 1 2.41569 2.22596 43.1657 -8.87854
220 1 4.52524 2.22432 44.847 -8.90295
221 1 0.908673 0.00545699 43.5854 -8.89771
222 1 2.99876 0.00671565 45.3399 -8.89411
223 1 1.53085 2.22787 45.7049 -8.74384
224 1 5.13649 0.005 23.9288 -8.89998
225 1 7.25152 0.005 25.638 -8.89998
226 1 6.64723 2.22532 23.5015 -8.89998
227 1 0.0122875 0.0057901 46.1573 -8.95942
228 1 2.08242 0.0259508 48.0744 -8.91434
229 1 4.43521 4.43391 49.4739 -8.5832
230 1 3.68555 2.22575 47.4312 -8.92086
231 1 5.8953 2.20368 49.4051 -8.57106
232 1 0.566465 2.23411 48.1747 -8.3694
233 1 2.62825 2.2449 49.8486 -8.25966
234 1 5.14018 4.43978 46.9299 -8.56208
235 1 7.17983 4.40683 48.6454 -8.30439
236 1 6.60269 2.21713 46.5888 -8.93448
Egb = 3.04731230584712
