ITEM: TIMESTEP
0
ITEM: NUMBER OF ATOMS
2356
ITEM: BOX BOUNDS pp pp ss
0.0000000000000000e+00 1.6315918607298830e+01
0.0000000000000000e+00 2.2203152929257598e+01
-1.0164277105511370e-02 1.0042863508923756e+02
ITEM: ATOMS id type x y z c_eng
1 1 6.74347 4.44563 53.0073 -8.87248
2 1 7.55452 4.44562 55.5717 -8.89817
3 1 8.46505 4.44562 58.1146 -8.89714
4 1 9.36786 4.44562 60.6766 -8.89853
5 1 10.2733 4.44562 63.2411 -8.89981
6 1 11.1795 4.44562 65.8058 -8.90003
7 1 12.0859 4.44562 68.3703 -8.90003
8 1 12.9923 4.44562 70.9345 -8.89997
9 1 6.02571 6.67377 55.078 -8.89342
10 1 6.94712 6.66778 57.6814 -8.91747
11 1 7.85628 6.6656 60.2489 -8.90161
12 1 8.76245 6.66534 62.814 -8.90013
13 1 9.66875 6.66545 65.3786 -8.90001
14 1 10.5751 6.66562 67.943 -8.9
15 1 11.4815 6.66576 70.5072 -8.89997
16 1 12.388 6.66594 73.0712 -8.90001
17 1 7.47232 6.62586 50.9162 -8.57413
18 1 8.15625 6.68191 53.4715 -8.54612
19 1 9.06876 6.66699 55.9808 -8.87348
20 1 9.97212 6.66455 58.5377 -8.89451
21 1 10.8776 6.66475 61.1033 -8.90065
22 1 11.7838 6.66517 63.6687 -8.90022
23 1 12.6901 6.66546 66.2334 -8.90005
24 1 13.5966 6.66565 68.7978 -8.90002
25 1 9.0456 4.44563 50.9326 -8.83297
26 1 9.62474 4.44563 53.7912 -8.90352
27 1 10.5799 4.44562 56.3801 -8.90883
28 1 11.4821 4.44562 58.961 -8.9067
29 1 12.3882 4.44562 61.5298 -8.90102
30 1 13.2944 4.44562 64.0958 -8.90012
31 1 10.2066 6.76855 51.7732 -8.63989
32 1 11.2 6.67107 54.2483 -8.92827
33 1 12.0866 6.66382 56.8258 -8.89301
34 1 12.9921 6.66324 59.3926 -8.89357
35 1 11.7335 4.44563 52.1896 -8.70957
36 1 12.6928 4.44562 54.6741 -8.69661
37 1 13.5907 4.44562 57.2351 -8.88376
38 1 13.2267 6.69413 52.258 -8.96664
39 1 6.34651 4.44562 59.8226 -8.90058
40 1 7.25197 4.44562 62.3864 -8.90016
41 1 8.15811 4.44562 64.951 -8.90005
42 1 9.06444 4.44562 67.5155 -8.90003
43 1 9.97084 4.44562 70.0798 -8.89992
44 1 10.8773 4.44562 72.6439 -8.90002
45 1 5.74112 6.66567 61.9591 -8.89945
46 1 6.64736 6.66548 64.5238 -8.89997
47 1 7.55371 6.66558 67.0882 -8.90002
48 1 8.46012 6.66572 69.6525 -8.90003
49 1 9.36653 6.66594 72.2166 -8.89999
50 1 6.04301 4.44562 66.6607 -8.89997
51 1 6.9494 4.44562 69.225 -8.9
52 1 7.85582 4.44562 71.7892 -8.89999
53 1 6.34508 6.6658 71.3619 -8.89996
54 1 5.74077 4.44562 73.4985 -8.90002
55 1 6.64721 4.44562 76.0623 -8.89999
56 1 7.55365 4.44562 78.6261 -8.89998
57 1 8.46009 4.44562 81.1899 -8.89998
58 1 9.36653 4.44562 83.7537 -8.89998
59 1 10.273 4.44562 86.3175 -8.89998
60 1 11.1794 4.44562 88.8813 -8.89998
61 1 12.0859 4.44562 91.4451 -8.89998
62 1 12.9923 4.44562 94.0089 -8.89998
63 1 6.04292 6.66594 78.1988 -8.89998
64 1 6.94936 6.66594 80.7626 -8.89998
65 1 7.8558 6.66594 83.3264 -8.89998
66 1 8.76224 6.66594 85.8902 -8.89998
67 1 9.66868 6.66594 88.454 -8.89998
68 1 10.5751 6.66594 91.0178 -8.89998
69 1 11.4816 6.66594 93.5816 -8.89998
70 1 12.388 6.66594 96.1454 -8.91055
71 1 7.25151 6.66594 73.9258 -8.9
72 1 8.15795 6.66594 76.4896 -8.89999
73 1 9.06439 6.66594 79.0534 -8.89998
74 1 9.97083 6.66594 81.6172 -8.89998
75 1 10.8773 6.66594 84.181 -8.89998
76 1 11.7837 6.66594 86.7448 -8.89998
77 1 12.6901 6.66594 89.3086 -8.89998
78 1 13.5966 6.66594 91.8724 -8.89998
79 1 8.76224 4.44562 74.3531 -8.90001
80 1 9.66868 4.44562 76.9169 -8.89998
81 1 10.5751 4.44562 79.4807 -8.89998
82 1 11.4816 4.44562 82.0445 -8.89998
83 1 12.388 4.44562 84.6083 -8.89998
84 1 13.2944 4.44562 87.1721 -8.89998
85 1 10.273 6.66594 74.7804 -8.9
86 1 11.1794 6.66594 77.3442 -8.89998
87 1 12.0859 6.66594 79.908 -8.89998
88 1 12.9923 6.66594 82.4718 -8.89998
89 1 11.7837 4.44562 75.2077 -8.9
90 1 12.6901 4.44562 77.7715 -8.89998
91 1 13.5966 4.44562 80.3353 -8.89998
92 1 13.2944 6.66594 75.635 -8.89999
93 1 6.34507 4.44562 82.8991 -8.89998
94 1 7.25151 4.44562 85.4629 -8.89998
95 1 8.15795 4.44562 88.0267 -8.89998
96 1 9.06439 4.44562 90.5905 -8.89998
97 1 9.97083 4.44562 93.1543 -8.89998
98 1 10.8773 4.44562 95.7181 -8.89999
99 1 5.74077 6.66594 85.0356 -8.89998
100 1 6.64721 6.66594 87.5994 -8.89998
101 1 7.55365 6.66594 90.1632 -8.89998
102 1 8.46009 6.66594 92.727 -8.89998
103 1 9.36653 6.66594 95.2908 -8.89998
104 1 6.04292 4.44562 89.7359 -8.89998
105 1 6.94936 4.44562 92.2997 -8.89998
106 1 7.8558 4.44562 94.8635 -8.89998
107 1 6.34507 6.66594 94.4362 -8.89998
108 1 5.74077 4.44562 96.5727 -8.91611
109 1 6.64721 4.44562 99.1365 -7.83773
110 1 7.25151 6.66594 97 -8.92667
111 1 8.15795 6.66594 99.5638 -7.85861
112 1 8.76224 4.44562 97.4273 -8.93195
113 1 9.66868 4.44562 99.9911 -7.60504
114 1 10.273 6.66594 97.8546 -8.94308
115 1 11.1794 6.66594 100.418 -6.80401
116 1 11.7837 4.44562 98.2819 -8.6482
117 1 13.2944 6.66594 98.7092 -8.16469
118 1 6.67178 8.89894 52.9522 -8.89754
119 1 7.53934 8.8874 55.5591 -8.90792
120 1 8.45931 8.88485 58.1149 -8.89504
121 1 9.36627 8.88476 60.678 -8.89792
122 1 10.2729 8.88506 63.2423 -8.8997
123 1 11.1794 8.88545 65.8066 -8.89997
124 1 12.0858 8.88575 68.3707 -8.89999
125 1 12.9923 8.88599 70.9346 -8.89998
126 1 5.98828 11.105 55.081 -8.85713
127 1 6.9423 11.1035 57.6838 -8.91749
128 1 7.85504 11.1047 60.2519 -8.90113
129 1 8.76201 11.1052 62.8162 -8.9001
130 1 9.6686 11.1057 65.38 -8.89994
131 1 10.5751 11.106 67.9438 -8.89996
132 1 11.4815 11.1063 70.5075 -8.89998
133 1 12.388 11.1066 73.0712 -8.89997
134 1 7.4315 11.1545 50.941 -8.51715
135 1 8.11691 11.0846 53.5014 -8.45923
136 1 9.06176 11.1052 55.9954 -8.85379
137 1 9.97045 11.1054 58.5445 -8.89192
138 1 10.8769 11.1052 61.1075 -8.90041
139 1 11.7835 11.1055 63.6711 -8.89992
140 1 12.69 11.1058 66.2347 -8.89993
141 1 13.5965 11.1061 68.7984 -8.89996
142 1 8.82817 8.90032 51.0121 -8.5334
143 1 9.63135 8.89035 53.8232 -8.97151
144 1 10.5786 8.88446 56.4001 -8.90042
145 1 11.4817 8.88418 58.969 -8.90376
146 1 12.3879 8.88452 61.5332 -8.89969
147 1 13.2944 8.88512 64.0973 -8.89977
148 1 10.1727 11.0262 51.8515 -8.00666
149 1 11.2076 11.1098 54.3017 -8.9466
150 1 12.0918 11.1068 56.8437 -8.89714
151 1 12.9926 11.1058 59.4016 -8.89222
152 1 11.7906 8.95525 52.271 -8.32788
153 1 12.7266 8.89408 54.7382 -8.71896
154 1 13.6017 8.88288 57.2657 -8.86996
155 1 13.33 11.1166 52.3888 -8.89117
156 1 6.34379 8.88537 59.8196 -8.90361
157 1 7.25134 8.88515 62.3868 -8.90072
158 1 8.15794 8.88539 64.9517 -8.90016
159 1 9.06439 8.88568 67.516 -8.90003
160 1 9.97083 8.88593 70.08 -8.89996
161 1 10.8773 8.88625 72.6439 -8.89999
162 1 5.74084 11.105 61.9611 -8.89981
163 1 6.64725 11.1055 64.5254 -8.90001
164 1 7.55368 11.1059 67.0892 -8.9
165 1 8.4601 11.1062 69.6529 -8.89997
166 1 9.36653 11.1066 72.2166 -8.89998
167 1 6.043 8.88559 66.6613 -8.9
168 1 6.9494 8.88584 69.2253 -8.89999
169 1 7.85582 8.88608 71.7893 -8.89998
170 1 6.34509 11.1063 71.3621 -8.89998
171 1 5.74077 8.88625 73.4985 -8.89999
172 1 6.64721 8.88625 76.0623 -8.89998
173 1 7.55365 8.88625 78.6261 -8.89998
174 1 8.46009 8.88625 81.1899 -8.89998
175 1 9.36653 8.88625 83.7537 -8.89998
176 1 10.273 8.88625 86.3175 -8.89998
177 1 11.1794 8.88625 88.8813 -8.89998
178 1 12.0859 8.88625 91.4451 -8.89998
179 1 12.9923 8.88625 94.0089 -8.89998
180 1 6.04292 11.1066 78.1988 -8.89998
181 1 6.94936 11.1066 80.7626 -8.89998
182 1 7.8558 11.1066 83.3264 -8.89998
183 1 8.76224 11.1066 85.8902 -8.89998
184 1 9.66868 11.1066 88.454 -8.89998
185 1 10.5751 11.1066 91.0178 -8.89998
186 1 11.4816 11.1066 93.5816 -8.89998
187 1 12.388 11.1066 96.1454 -8.91055
188 1 7.25151 11.1066 73.9258 -8.89997
189 1 8.15795 11.1066 76.4896 -8.89998
190 1 9.06439 11.1066 79.0534 -8.89998
191 1 9.97083 11.1066 81.6172 -8.89998
192 1 10.8773 11.1066 84.181 -8.89998
193 1 11.7837 11.1066 86.7448 -8.89998
194 1 12.6901 11.1066 89.3086 -8.89998
195 1 13.5966 11.1066 91.8724 -8.89998
196 1 8.76224 8.88625 74.3531 -8.89999
197 1 9.66868 8.88625 76.9169 -8.89998
198 1 10.5751 8.88625 79.4807 -8.89998
199 1 11.4816 8.88625 82.0445 -8.89998
200 1 12.388 8.88625 84.6083 -8.89998
201 1 13.2944 8.88625 87.1721 -8.89998
202 1 10.273 11.1066 74.7804 -8.89998
203 1 11.1794 11.1066 77.3442 -8.89998
204 1 12.0859 11.1066 79.908 -8.89998
205 1 12.9923 11.1066 82.4718 -8.89998
206 1 11.7837 8.88625 75.2077 -8.89999
207 1 12.6901 8.88625 77.7715 -8.89998
208 1 13.5966 8.88625 80.3353 -8.89998
209 1 13.2944 11.1066 75.635 -8.89998
210 1 6.34507 8.88625 82.8991 -8.89998
211 1 7.25151 8.88625 85.4629 -8.89998
212 1 8.15795 8.88625 88.0267 -8.89998
213 1 9.06439 8.88625 90.5905 -8.89998
214 1 9.97083 8.88625 93.1543 -8.89998
215 1 10.8773 8.88625 95.7181 -8.89999
216 1 5.74077 11.1066 85.0356 -8.89998
217 1 6.64721 11.1066 87.5994 -8.89998
218 1 7.55365 11.1066 90.1632 -8.89998
219 1 8.46009 11.1066 92.727 -8.89998
220 1 9.36653 11.1066 95.2908 -8.89998
221 1 6.04292 8.88625 89.7359 -8.89998
222 1 6.94936 8.88625 92.2997 -8.89998
223 1 7.8558 8.88625 94.8635 -8.89998
224 1 6.34507 11.1066 94.4362 -8.89998
225 1 5.74077 8.88625 96.5727 -8.91611
226 1 6.64721 8.88625 99.1365 -7.83773
227 1 7.25151 11.1066 97 -8.92667
228 1 8.15795 11.1066 99.5638 -7.85861
229 1 8.76224 8.88625 97.4273 -8.93195
230 1 9.66868 8.88625 99.9911 -7.60504
231 1 10.273 11.1066 97.8546 -8.94308
232 1 11.1794 11.1066 100.418 -6.80401
233 1 11.7837 8.88625 98.2819 -8.6482
234 1 13.2944 11.1066 98.7092 -8.16469
235 1 5.70831 13.4377 50.5782 -8.34022
236 1 6.74272 13.3204 52.9947 -8.83222
237 1 7.54962 13.3223 55.5818 -8.89921
238 1 8.46239 13.3255 58.1219 -8.89461
239 1 9.36644 13.3257 60.6828 -8.89812
240 1 10.2728 13.3261 63.245 -8.89959
241 1 11.1793 13.3264 65.808 -8.8999
242 1 12.0858 13.3266 68.3714 -8.89994
243 1 12.9923 13.3267 70.9349 -8.89999
244 1 6.05209 15.5472 55.1024 -8.90432
245 1 6.95216 15.5472 57.6953 -8.92456
246 1 7.85663 15.5472 60.2569 -8.90056
247 1 8.76237 15.5472 62.8187 -8.90008
248 1 9.66868 15.5472 65.3812 -8.89987
249 1 10.5751 15.5472 67.9443 -8.89992
250 1 11.4816 15.5472 70.5077 -8.89999
251 1 12.388 15.5472 73.0712 -8.89994
252 1 7.5329 15.5472 50.9043 -8.6411
253 1 8.17599 15.5472 53.4773 -8.47994
254 1 9.07598 15.5472 55.988 -8.87243
255 1 9.96959 15.5472 58.5464 -8.89506
256 1 10.8766 15.5472 61.1094 -8.90094
257 1 11.7834 15.5472 63.6724 -8.9002
258 1 12.69 15.5472 66.2355 -8.89999
259 1 13.5965 15.5472 68.7988 -8.89995
260 1 9.04117 13.288 50.8665 -8.73918
261 1 9.62857 13.3172 53.7969 -8.9089
262 1 10.576 13.329 56.3938 -8.90754
263 1 11.4794 13.3263 58.9718 -8.9058
264 1 12.3872 13.3263 61.5361 -8.9005
265 1 13.2941 13.3263 64.0993 -8.89987
266 1 10.2301 15.5472 51.7166 -8.69008
267 1 11.188 15.5472 54.2219 -8.93696
268 1 12.0696 15.5472 56.8348 -8.88347
269 1 12.9886 15.5472 59.4006 -8.89409
270 1 11.7633 13.2603 52.2268 -8.67651
271 1 12.704 13.3157 54.7076 -8.72205
272 1 13.5897 13.3278 57.258 -8.88721
273 1 13.2044 15.5472 52.2373 -9.0046
274 1 6.34542 13.3248 59.827 -8.90261
275 1 7.25156 13.3257 62.3905 -8.90027
276 1 8.15795 13.3262 64.9537 -8.90001
277 1 9.06438 13.3265 67.5169 -8.89994
278 1 9.97082 13.3267 70.0804 -8.90002
279 1 10.8773 13.3269 72.6439 -8.89995
280 1 5.74182 15.5472 61.9661 -8.89831
281 1 6.64744 15.5472 64.5273 -8.89952
282 1 7.55371 15.5472 67.09 -8.89986
283 1 8.4601 15.5472 69.6532 -8.8999
284 1 9.36653 15.5472 72.2166 -8.89996
285 1 6.043 13.3264 66.6626 -8.89987
286 1 6.94939 13.3266 69.2259 -8.89993
287 1 7.8558 13.3268 71.7895 -8.89996
288 1 6.34509 15.5472 71.3622 -8.89999
289 1 5.74077 13.3269 73.4985 -8.89995
290 1 6.64721 13.3269 76.0623 -8.89998
291 1 7.55365 13.3269 78.6261 -8.89998
292 1 8.46009 13.3269 81.1899 -8.89998
293 1 9.36653 13.3269 83.7537 -8.89998
294 1 10.273 13.3269 86.3175 -8.89998
295 1 11.1794 13.3269 88.8813 -8.89998
296 1 12.0859 13.3269 91.4451 -8.89998
297 1 12.9923 13.3269 94.0089 -8.89998
298 1 6.04292 15.5472 78.1988 -8.89998
299 1 6.94936 15.5472 80.7626 -8.89998
300 1 7.8558 15.5472 83.3264 -8.89998
301 1 8.76224 15.5472 85.8902 -8.89998
302 1 9.66868 15.5472 88.454 -8.89998
303 1 10.5751 15.5472 91.0178 -8.89998
304 1 11.4816 15.5472 93.5816 -8.89998
305 1 12.388 15.5472 96.1454 -8.91055
306 1 7.25151 15.5472 73.9258 -8.89995
307 1 8.15795 15.5472 76.4896 -8.89997
308 1 9.06439 15.5472 79.0534 -8.89998
309 1 9.97083 15.5472 81.6172 -8.89998
310 1 10.8773 15.5472 84.181 -8.89998
311 1 11.7837 15.5472 86.7448 -8.89998
312 1 12.6901 15.5472 89.3086 -8.89998
313 1 13.5966 15.5472 91.8724 -8.89998
314 1 8.76224 13.3269 74.3531 -8.89996
315 1 9.66868 13.3269 76.9169 -8.89998
316 1 10.5751 13.3269 79.4807 -8.89998
317 1 11.4816 13.3269 82.0445 -8.89998
318 1 12.388 13.3269 84.6083 -8.89998
319 1 13.2944 13.3269 87.1721 -8.89998
320 1 10.273 15.5472 74.7804 -8.89996
321 1 11.1794 15.5472 77.3442 -8.89998
322 1 12.0859 15.5472 79.908 -8.89998
323 1 12.9923 15.5472 82.4718 -8.89998
324 1 11.7837 13.3269 75.2077 -8.89997
325 1 12.6901 13.3269 77.7715 -8.89998
326 1 13.5966 13.3269 80.3353 -8.89998
327 1 13.2944 15.5472 75.635 -8.89997
328 1 6.34507 13.3269 82.8991 -8.89998
329 1 7.25151 13.3269 85.4629 -8.89998
330 1 8.15795 13.3269 88.0267 -8.89998
331 1 9.06439 13.3269 90.5905 -8.89998
332 1 9.97083 13.3269 93.1543 -8.89998
333 1 10.8773 13.3269 95.7181 -8.89999
334 1 5.74077 15.5472 85.0356 -8.89998
335 1 6.64721 15.5472 87.5994 -8.89998
336 1 7.55365 15.5472 90.1632 -8.89998
337 1 8.46009 15.5472 92.727 -8.89998
338 1 9.36653 15.5472 95.2908 -8.89998
339 1 6.04292 13.3269 89.7359 -8.89998
340 1 6.94936 13.3269 92.2997 -8.89998
341 1 7.8558 13.3269 94.8635 -8.89998
342 1 6.34507 15.5472 94.4362 -8.89998
343 1 5.74077 13.3269 96.5727 -8.91611
344 1 6.64721 13.3269 99.1365 -7.83773
345 1 7.25151 15.5472 97 -8.92667
346 1 8.15795 15.5472 99.5638 -7.85861
347 1 8.76224 13.3269 97.4273 -8.93195
348 1 9.66868 13.3269 99.9911 -7.60504
349 1 10.273 15.5472 97.8546 -8.94308
350 1 11.1794 15.5472 100.418 -6.80401
351 1 11.7837 13.3269 98.2819 -8.6482
352 1 13.2944 15.5472 98.7092 -8.16469
353 1 5.70831 17.6567 50.5782 -8.34022
354 1 6.74272 17.774 52.9947 -8.83222
355 1 7.54962 17.7721 55.5818 -8.89921
356 1 8.46239 17.7689 58.1219 -8.89461
357 1 9.36644 17.7687 60.6828 -8.89812
358 1 10.2728 17.7683 63.245 -8.89959
359 1 11.1793 17.768 65.808 -8.8999
360 1 12.0858 17.7678 68.3714 -8.89994
361 1 12.9923 17.7677 70.9349 -8.89999
362 1 5.98829 19.9894 55.081 -8.85713
363 1 6.9423 19.9909 57.6838 -8.91749
364 1 7.85504 19.9897 60.2519 -8.90113
365 1 8.76201 19.9892 62.8162 -8.9001
366 1 9.6686 19.9887 65.38 -8.89994
367 1 10.5751 19.9884 67.9438 -8.89996
368 1 11.4815 19.9881 70.5075 -8.89998
369 1 12.388 19.9878 73.0712 -8.89997
370 1 7.4315 19.9399 50.941 -8.51715
371 1 8.11691 20.0098 53.5014 -8.45923
372 1 9.06176 19.9892 55.9954 -8.85379
373 1 9.97045 19.989 58.5445 -8.89192
374 1 10.8769 19.9892 61.1075 -8.90041
375 1 11.7835 19.9889 63.6711 -8.89992
376 1 12.69 19.9886 66.2347 -8.89993
377 1 13.5965 19.9883 68.7984 -8.89996
378 1 9.04117 17.8064 50.8665 -8.73918
379 1 9.62857 17.7772 53.7969 -8.9089
380 1 10.576 17.7654 56.3938 -8.90754
381 1 11.4794 17.7681 58.9718 -8.9058
382 1 12.3872 17.7681 61.5361 -8.9005
383 1 13.2941 17.7681 64.0993 -8.89987
384 1 10.1727 20.0682 51.8515 -8.00666
385 1 11.2076 19.9846 54.3017 -8.9466
386 1 12.0918 19.9876 56.8437 -8.89714
387 1 12.9926 19.9886 59.4016 -8.89222
388 1 11.7633 17.8342 52.2268 -8.67651
389 1 12.704 17.7787 54.7076 -8.72205
390 1 13.5897 17.7666 57.258 -8.88721
391 1 13.33 19.9778 52.3888 -8.89117
392 1 6.34542 17.7696 59.827 -8.90261
393 1 7.25156 17.7687 62.3905 -8.90027
394 1 8.15795 17.7682 64.9537 -8.90001
395 1 9.06438 17.7679 67.5169 -8.89994
396 1 9.97082 17.7677 70.0804 -8.90002
397 1 10.8773 17.7675 72.6439 -8.89995
398 1 5.74084 19.9894 61.9611 -8.89981
399 1 6.64725 19.9889 64.5254 -8.90001
400 1 7.55368 19.9885 67.0892 -8.9
401 1 8.4601 19.9882 69.6529 -8.89997
402 1 9.36653 19.9878 72.2166 -8.89998
403 1 6.043 17.768 66.6626 -8.89987
404 1 6.94939 17.7678 69.2259 -8.89993
405 1 7.8558 17.7676 71.7895 -8.89996
406 1 6.34509 19.9881 71.3621 -8.89998
407 1 5.74077 17.7675 73.4985 -8.89995
408 1 6.64721 17.7675 76.0623 -8.89998
409 1 7.55365 17.7675 78.6261 -8.89998
410 1 8.46009 17.7675 81.1899 -8.89998
411 1 9.36653 17.7675 83.7537 -8.89998
412 1 10.273 17.7675 86.3175 -8.89998
413 1 11.1794 17.7675 88.8813 -8.89998
414 1 12.0859 17.7675 91.4451 -8.89998
415 1 12.9923 17.7675 94.0089 -8.89998
416 1 6.04292 19.9878 78.1988 -8.89998
417 1 6.94936 19.9878 80.7626 -8.89998
418 1 7.8558 19.9878 83.3264 -8.89998
419 1 8.76224 19.9878 85.8902 -8.89998
420 1 9.66868 19.9878 88.454 -8.89998
421 1 10.5751 19.9878 91.0178 -8.89998
422 1 11.4816 19.9878 93.5816 -8.89998
423 1 12.388 19.9878 96.1454 -8.91055
424 1 7.25151 19.9878 73.9258 -8.89997
425 1 8.15795 19.9878 76.4896 -8.89998
426 1 9.06439 19.9878 79.0534 -8.89998
427 1 9.97083 19.9878 81.6172 -8.89998
428 1 10.8773 19.9878 84.181 -8.89998
429 1 11.7837 19.9878 86.7448 -8.89998
430 1 12.6901 19.9878 89.3086 -8.89998
431 1 13.5966 19.9878 91.8724 -8.89998
432 1 8.76224 17.7675 74.3531 -8.89996
433 1 9.66868 17.7675 76.9169 -8.89998
434 1 10.5751 17.7675 79.4807 -8.89998
435 1 11.4816 17.7675 82.0445 -8.89998
436 1 12.388 17.7675 84.6083 -8.89998
437 1 13.2944 17.7675 87.1721 -8.89998
438 1 10.273 19.9878 74.7804 -8.89998
439 1 11.1794 19.9878 77.3442 -8.89998
440 1 12.0859 19.9878 79.908 -8.89998
441 1 12.9923 19.9878 82.4718 -8.89998
442 1 11.7837 17.7675 75.2077 -8.89997
443 1 12.6901 17.7675 77.7715 -8.89998
444 1 13.5966 17.7675 80.3353 -8.89998
445 1 13.2944 19.9878 75.635 -8.89998
446 1 6.34507 17.7675 82.8991 -8.89998
447 1 7.25151 17.7675 85.4629 -8.89998
448 1 8.15795 17.7675 88.0267 -8.89998
449 1 9.06439 17.7675 90.5905 -8.89998
450 1 9.97083 17.7675 93.1543 -8.89998
451 1 10.8773 17.7675 95.7181 -8.89999
452 1 5.74077 19.9878 85.0356 -8.89998
453 1 6.64721 19.9878 87.5994 -8.89998
454 1 7.55365 19.9878 90.1632 -8.89998
455 1 8.46009 19.9878 92.727 -8.89998
456 1 9.36653 19.9878 95.2908 -8.89998
457 1 6.04292 17.7675 89.7359 -8.89998
458 1 6.94936 17.7675 92.2997 -8.89998
459 1 7.8558 17.7675 94.8635 -8.89998
460 1 6.34507 19.9878 94.4362 -8.89998
461 1 5.74077 17.7675 96.5727 -8.91611
462 1 6.64721 17.7675 99.1365 -7.83773
463 1 7.25151 19.9878 97 -8.92667
464 1 8.15795 19.9878 99.5638 -7.85861
465 1 8.76224 17.7675 97.4273 -8.93195
466 1 9.66868 17.7675 99.9911 -7.60504
467 1 10.273 19.9878 97.8546 -8.94308
468 1 11.1794 19.9878 100.418 -6.80401
469 1 11.7837 17.7675 98.2819 -8.6482
470 1 13.2944 19.9878 98.7092 -8.16469
471 1 5.6458 0.0488994 50.5177 -8.64668
472 1 6.67178 22.1955 52.9522 -8.89754
473 1 7.53934 0.00384515 55.5591 -8.90792
474 1 8.45932 0.00640066 58.1149 -8.89504
475 1 9.36627 0.00648639 60.678 -8.89792
476 1 10.2729 0.00618398 63.2423 -8.8997
477 1 11.1794 0.0057951 65.8066 -8.89997
478 1 12.0858 0.00549011 68.3707 -8.89999
479 1 12.9923 0.00524939 70.9346 -8.89998
480 1 6.02571 2.21748 55.078 -8.89342
481 1 6.94712 2.22347 57.6814 -8.91747
482 1 7.85628 2.22565 60.2489 -8.90161
483 1 8.76245 2.22591 62.814 -8.90013
484 1 9.66875 2.22579 65.3786 -8.90001
485 1 10.5751 2.22563 67.943 -8.9
486 1 11.4815 2.22548 70.5072 -8.89997
487 1 12.388 2.22531 73.0712 -8.90001
488 1 7.47232 2.2654 50.9162 -8.57413
489 1 8.15625 2.20934 53.4715 -8.54612
490 1 9.06877 2.22426 55.9808 -8.87348
491 1 9.97212 2.2267 58.5377 -8.89451
492 1 10.8776 2.2265 61.1033 -8.90065
493 1 11.7838 2.22608 63.6687 -8.90022
494 1 12.6901 2.22579 66.2334 -8.90005
495 1 13.5966 2.22559 68.7978 -8.90002
496 1 8.82817 22.1941 51.0121 -8.5334
497 1 9.63135 0.000896612 53.8232 -8.97151
498 1 10.5786 0.00679048 56.4001 -8.90042
499 1 11.4817 0.00706998 58.969 -8.90376
500 1 12.3879 0.00672916 61.5332 -8.89969
501 1 13.2944 0.00613003 64.0973 -8.89977
502 1 10.2066 2.1227 51.7732 -8.63989
503 1 11.2 2.22018 54.2483 -8.92827
504 1 12.0866 2.22743 56.8258 -8.89301
505 1 12.9921 2.22801 59.3926 -8.89357
506 1 11.7906 22.1392 52.271 -8.32788
507 1 12.7266 22.2003 54.7382 -8.71896
508 1 13.6017 0.00836428 57.2657 -8.86996
509 1 13.2267 2.19712 52.258 -8.96664
510 1 6.34379 0.00588086 59.8196 -8.90361
511 1 7.25134 0.00609567 62.3868 -8.90072
512 1 8.15794 0.00585731 64.9517 -8.90016
513 1 9.06439 0.00556867 67.516 -8.90003
514 1 9.97083 0.00531172 70.08 -8.89996
515 1 10.8773 0.00499134 72.6439 -8.89999
516 1 5.74112 2.22558 61.9591 -8.89945
517 1 6.64736 2.22577 64.5238 -8.89997
518 1 7.55371 2.22566 67.0882 -8.90002
519 1 8.46012 2.22553 69.6525 -8.90003
520 1 9.36653 2.22531 72.2166 -8.89999
521 1 6.043 0.00565426 66.6613 -8.9
522 1 6.9494 0.00540416 69.2253 -8.89999
523 1 7.85582 0.00516491 71.7893 -8.89998
524 1 6.34508 2.22544 71.3619 -8.89996
525 1 5.74077 0.00499134 73.4985 -8.89999
526 1 6.64721 0.00499134 76.0623 -8.89998
527 1 7.55365 0.00499134 78.6261 -8.89998
528 1 8.46009 0.00499134 81.1899 -8.89998
529 1 9.36653 0.00499134 83.7537 -8.89998
530 1 10.273 0.00499134 86.3175 -8.89998
531 1 11.1794 0.00499134 88.8813 -8.89998
532 1 12.0859 0.00499134 91.4451 -8.89998
533 1 12.9923 0.00499134 94.0089 -8.89998
534 1 6.04292 2.22531 78.1988 -8.89998
535 1 6.94936 2.22531 80.7626 -8.89998
536 1 7.8558 2.22531 83.3264 -8.89998
537 1 8.76224 2.22531 85.8902 -8.89998
538 1 9.66868 2.22531 88.454 -8.89998
539 1 10.5751 2.22531 91.0178 -8.89998
540 1 11.4816 2.22531 93.5816 -8.89998
541 1 12.388 2.22531 96.1454 -8.91055
542 1 7.25151 2.22531 73.9258 -8.9
543 1 8.15795 2.22531 76.4896 -8.89999
544 1 9.06439 2.22531 79.0534 -8.89998
545 1 9.97083 2.22531 81.6172 -8.89998
546 1 10.8773 2.22531 84.181 -8.89998
547 1 11.7837 2.22531 86.7448 -8.89998
548 1 12.6901 2.22531 89.3086 -8.89998
549 1 13.5966 2.22531 91.8724 -8.89998
550 1 8.76224 0.00499134 74.3531 -8.89999
551 1 9.66868 0.00499134 76.9169 -8.89998
552 1 10.5751 0.00499134 79.4807 -8.89998
553 1 11.4816 0.00499134 82.0445 -8.89998
554 1 12.388 0.00499134 84.6083 -8.89998
555 1 13.2944 0.00499134 87.1721 -8.89998
556 1 10.273 2.22531 74.7804 -8.9
557 1 11.1794 2.22531 77.3442 -8.89998
558 1 12.0859 2.22531 79.908 -8.89998
559 1 12.9923 2.22531 82.4718 -8.89998
560 1 11.7837 0.00499134 75.2077 -8.89999
561 1 12.6901 0.00499134 77.7715 -8.89998
562 1 13.5966 0.00499134 80.3353 -8.89998
563 1 13.2944 2.22531 75.635 -8.89999
564 1 6.34507 0.00499134 82.8991 -8.89998
565 1 7.25151 0.00499134 85.4629 -8.89998
566 1 8.15795 0.00499134 88.0267 -8.89998
567 1 9.06439 0.00499134 90.5905 -8.89998
568 1 9.97083 0.00499134 93.1543 -8.89998
569 1 10.8773 0.00499134 95.7181 -8.89999
570 1 5.74077 2.22531 85.0356 -8.89998
571 1 6.64721 2.22531 87.5994 -8.89998
572 1 7.55365 2.22531 90.1632 -8.89998
573 1 8.46009 2.22531 92.727 -8.89998
574 1 9.36653 2.22531 95.2908 -8.89998
575 1 6.04292 0.00499134 89.7359 -8.89998
576 1 6.94936 0.00499134 92.2997 -8.89998
577 1 7.8558 0.00499134 94.8635 -8.89998
578 1 6.34507 2.22531 94.4362 -8.89998
579 1 5.74077 0.00499134 96.5727 -8.91611
580 1 6.64721 0.00499134 99.1365 -7.83773
581 1 7.25151 2.22531 97 -8.92667
582 1 8.15795 2.22531 99.5638 -7.85861
583 1 8.76224 0.00499134 97.4273 -8.93195
584 1 9.66868 0.00499134 99.9911 -7.60504
585 1 10.273 2.22531 97.8546 -8.94308
586 1 11.1794 2.22531 100.418 -6.80401
587 1 11.7837 0.00499134 98.2819 -8.6482
588 1 13.2944 2.22531 98.7092 -8.16469
589 1 13.7811 4.44563 50.4929 -8.66879
590 1 14.8072 4.44563 52.9357 -8.91058
591 1 15.6945 4.44562 55.5498 -8.90642
592 1 0.299937 4.44562 58.112 -8.89472
593 1 1.20805 4.44562 60.6763 -8.8979
594 1 2.11501 4.44562 63.2412 -8.89973
595 1 3.02152 4.44562 65.8059 -8.9
596 1 3.92793 4.44562 68.3703 -8.90001
597 1 4.83435 4.44562 70.9345 -8.89997
598 1 14.1645 6.65895 55.0654 -8.87742
599 1 15.1018 6.66206 57.6784 -8.91727
600 1 16.0133 6.66438 60.249 -8.90192
601 1 0.604243 6.66505 62.8143 -8.90018
602 1 1.51076 6.66539 65.3788 -8.90003
603 1 2.4172 6.6656 67.9431 -8.9
604 1 3.32361 6.66575 70.5072 -8.89997
605 1 4.23004 6.66594 73.0712 -8.90001
606 1 15.6143 6.72235 50.9283 -8.52139
607 1 16.301 6.64416 53.4804 -8.51628
608 1 0.904478 6.6645 55.9862 -8.86261
609 1 1.81306 6.66598 58.54 -8.89358
610 1 2.71952 6.66548 61.1043 -8.90039
611 1 3.62593 6.6654 63.6691 -8.90007
612 1 4.53229 6.66552 66.2335 -8.9
613 1 5.43867 6.66566 68.7978 -8.9
614 1 0.635278 4.44563 51.0438 -8.60111
615 1 1.47649 4.44563 53.8243 -8.98507
616 1 2.41888 4.44562 56.4011 -8.90039
617 1 3.32381 4.44562 58.9677 -8.9032
618 1 4.23035 4.44562 61.5317 -8.89952
619 1 5.13667 4.44562 64.0962 -8.89975
620 1 2.04316 6.54665 51.8115 -8.38583
621 1 3.04021 6.67122 54.2829 -8.93522
622 1 3.93147 6.66807 56.8342 -8.89517
623 1 4.83504 6.66685 59.3953 -8.89313
624 1 3.63856 4.44563 52.2671 -8.27258
625 1 4.56744 4.44563 54.738 -8.73772
626 1 5.44425 4.44562 57.264 -8.87089
627 1 5.11664 6.6758 52.3557 -8.90346
628 1 14.5011 4.44562 59.8158 -8.9039
629 1 15.4091 4.44562 62.3852 -8.90107
630 1 16.3158 4.44562 64.9509 -8.90026
631 1 0.90643 4.44562 67.5155 -8.90008
632 1 1.81288 4.44562 70.0798 -8.89994
633 1 2.71931 4.44562 72.6439 -8.90002
634 1 13.8986 6.66455 61.9585 -8.89964
635 1 14.8051 6.66521 64.5237 -8.90009
636 1 15.7116 6.66552 67.0883 -8.90006
637 1 0.302135 6.6657 69.6525 -8.90004
638 1 1.20858 6.66594 72.2166 -8.9
639 1 14.2009 4.44562 66.6607 -8.90007
640 1 15.1073 4.44562 69.225 -8.90003
641 1 16.0138 4.44562 71.7892 -8.9
642 1 14.503 6.6658 71.3619 -8.89997
643 1 13.8987 4.44562 73.4985 -8.90002
644 1 14.8052 4.44562 76.0623 -8.89999
645 1 15.7116 4.44562 78.6261 -8.89998
646 1 0.302135 4.44562 81.1899 -8.89998
647 1 1.20858 4.44562 83.7537 -8.89998
648 1 2.11502 4.44562 86.3175 -8.89998
649 1 3.02146 4.44562 88.8813 -8.89998
650 1 3.9279 4.44562 91.4451 -8.89998
651 1 4.83434 4.44562 94.0089 -8.89998
652 1 14.2009 6.66594 78.1988 -8.89998
653 1 15.1073 6.66594 80.7626 -8.89998
654 1 16.0138 6.66594 83.3264 -8.89998
655 1 0.604282 6.66594 85.8902 -8.89998
656 1 1.51072 6.66594 88.454 -8.89998
657 1 2.41716 6.66594 91.0178 -8.89998
658 1 3.3236 6.66594 93.5816 -8.89998
659 1 4.23004 6.66594 96.1454 -8.91055
660 1 15.4095 6.66594 73.9258 -8.9
661 1 16.3159 6.66594 76.4896 -8.89998
662 1 0.906429 6.66594 79.0534 -8.89998
663 1 1.81287 6.66594 81.6172 -8.89998
664 1 2.71931 6.66594 84.181 -8.89998
665 1 3.62575 6.66594 86.7448 -8.89998
666 1 4.53219 6.66594 89.3086 -8.89998
667 1 5.43863 6.66594 91.8724 -8.89998
668 1 0.604282 4.44562 74.3531 -8.90001
669 1 1.51072 4.44562 76.9169 -8.89998
670 1 2.41716 4.44562 79.4807 -8.89998
671 1 3.3236 4.44562 82.0445 -8.89998
672 1 4.23004 4.44562 84.6083 -8.89998
673 1 5.13648 4.44562 87.1721 -8.89998
674 1 2.11502 6.66594 74.7804 -8.89999
675 1 3.02146 6.66594 77.3442 -8.89998
676 1 3.9279 6.66594 79.908 -8.89998
677 1 4.83434 6.66594 82.4718 -8.89998
678 1 3.62575 4.44562 75.2077 -8.9
679 1 4.53219 4.44562 77.7715 -8.89998
680 1 5.43863 4.44562 80.3353 -8.89998
681 1 5.13648 6.66594 75.635 -8.89999
682 1 14.503 4.44562 82.8991 -8.89998
683 1 15.4095 4.44562 85.4629 -8.89998
684 1 16.3159 4.44562 88.0267 -8.89998
685 1 0.906429 4.44562 90.5905 -8.89998
686 1 1.81287 4.44562 93.1543 -8.89998
687 1 2.71931 4.44562 95.7181 -8.89999
688 1 13.8987 6.66594 85.0356 -8.89998
689 1 14.8052 6.66594 87.5994 -8.89998
690 1 15.7116 6.66594 90.1632 -8.89998
691 1 0.302135 6.66594 92.727 -8.89998
692 1 1.20858 6.66594 95.2908 -8.89998
693 1 14.2009 4.44562 89.7359 -8.89998
694 1 15.1073 4.44562 92.2997 -8.89998
695 1 16.0138 4.44562 94.8635 -8.89998
696 1 14.503 6.66594 94.4362 -8.89998
697 1 13.8987 4.44562 96.5727 -8.91611
698 1 14.8052 4.44562 99.1365 -7.83773
699 1 15.4095 6.66594 97 -8.92667
700 1 16.3159 6.66594 99.5638 -7.85861
701 1 0.604282 4.44562 97.4273 -8.93195
702 1 1.51072 4.44562 99.9911 -7.60504
703 1 2.11502 6.66594 97.8546 -8.94308
704 1 3.02146 6.66594 100.418 -6.80401
705 1 3.62575 4.44562 98.2819 -8.6482
706 1 5.13648 6.66594 98.7092 -8.16469
707 1 14.9099 8.88667 53.0179 -8.84565
708 1 15.7138 8.88295 55.5803 -8.90061
709 1 0.306576 8.88494 58.1205 -8.89627
710 1 1.20969 8.88491 60.6803 -8.89821
711 1 2.11534 8.88515 63.2432 -8.89978
712 1 3.02158 8.88547 65.8069 -8.89999
713 1 3.92795 8.88575 68.3708 -8.89999
714 1 4.83436 8.88599 70.9347 -8.89998
715 1 14.2005 11.1123 55.0935 -8.89414
716 1 15.1066 11.1067 57.6917 -8.92022
717 1 16.0141 11.1054 60.255 -8.90167
718 1 0.604351 11.1054 62.8175 -8.90021
719 1 1.51076 11.1057 65.3806 -8.89997
720 1 2.41719 11.106 67.944 -8.89996
721 1 3.32362 11.1063 70.5075 -8.89998
722 1 4.23004 11.1066 73.0712 -8.89997
723 1 15.7078 11.1207 50.9145 -8.60351
724 1 0.0187469 11.1125 53.4859 -8.48228
725 1 0.918472 11.1098 55.9942 -8.86739
726 1 1.8149 11.1057 58.5451 -8.89564
727 1 2.71989 11.105 61.108 -8.90127
728 1 3.626 11.1054 63.6714 -8.90027
729 1 4.53229 11.1058 66.2348 -8.90002
730 1 5.43868 11.1061 68.7984 -8.89997
731 1 0.890953 8.88231 50.9283 -8.83626
732 1 1.47 8.88255 53.7955 -8.89787
733 1 2.42063 8.89034 56.3884 -8.91069
734 1 3.32406 8.88608 58.966 -8.90538
735 1 4.2304 8.88529 61.5325 -8.90076
736 1 5.13667 8.88534 64.0971 -8.89998
737 1 2.06386 11.1833 51.739 -8.66595
738 1 3.03373 11.1184 54.2305 -8.92824
739 1 3.9248 11.1067 56.8268 -8.88858
740 1 4.83382 11.1045 59.3963 -8.89383
741 1 3.58502 8.87179 52.2025 -8.69716
742 1 4.53793 8.88547 54.6872 -8.72354
743 1 5.43333 8.88769 57.2445 -8.88573
744 1 5.04569 11.1325 52.2353 -9.00132
745 1 14.5038 8.88397 59.8252 -8.90061
746 1 15.4095 8.88479 62.3884 -8.90024
747 1 16.3159 8.8853 64.9523 -8.90007
748 1 0.906434 8.88565 67.5162 -8.90001
749 1 1.81288 8.88592 70.0801 -8.89997
750 1 2.71931 8.88625 72.6439 -8.89999
751 1 13.8986 11.1054 61.9629 -8.89937
752 1 14.805 11.1056 64.526 -8.89985
753 1 15.7115 11.1059 67.0894 -8.89996
754 1 0.302109 11.1062 69.653 -8.89996
755 1 1.20858 11.1066 72.2166 -8.89998
756 1 14.2008 8.88554 66.6614 -8.89997
757 1 15.1073 8.88583 69.2254 -8.89999
758 1 16.0138 8.88608 71.7893 -8.89999
759 1 14.503 11.1063 71.3621 -8.89998
760 1 13.8987 8.88625 73.4985 -8.89999
761 1 14.8052 8.88625 76.0623 -8.89998
762 1 15.7116 8.88625 78.6261 -8.89998
763 1 0.302135 8.88625 81.1899 -8.89998
764 1 1.20858 8.88625 83.7537 -8.89998
765 1 2.11502 8.88625 86.3175 -8.89998
766 1 3.02146 8.88625 88.8813 -8.89998
767 1 3.9279 8.88625 91.4451 -8.89998
768 1 4.83434 8.88625 94.0089 -8.89998
769 1 14.2009 11.1066 78.1988 -8.89998
770 1 15.1073 11.1066 80.7626 -8.89998