ITEM: TIMESTEP
0
ITEM: NUMBER OF ATOMS
3298
ITEM: BOX BOUNDS pp pp ss
0.0000000000000000e+00 1.6315918607298830e+01
0.0000000000000000e+00 3.1084414100960640e+01
-1.0011324659197379e-02 1.0043178237888232e+02
ITEM: ATOMS id type x y z c_eng
1 1 15.3307 2.15876 50.085 -8.56698
2 1 1.50309 31.0817 53.0712 -8.55496
3 1 2.42265 0.0112117 55.5745 -8.86534
4 1 3.32557 0.00829135 58.1207 -8.89144
5 1 4.23111 0.00538404 60.6821 -8.89957
6 1 5.13715 0.0042013 63.2457 -8.89996
7 1 6.04339 0.00399609 65.8098 -8.89997
8 1 6.94973 0.00416784 68.3739 -8.89999
9 1 7.85612 0.0045237 70.9379 -8.89997
10 1 0.900332 2.23171 55.1331 -8.90285
11 1 1.8146 2.22858 57.6891 -8.89658
12 1 2.71956 2.22541 60.2543 -8.89884
13 1 3.62591 2.22424 62.8191 -8.90015
14 1 4.53241 2.22411 65.3832 -8.90009
15 1 5.43888 2.22434 67.9471 -8.90002
16 1 6.34535 2.22474 70.5108 -8.9
17 1 7.2518 2.22534 73.0745 -8.89998
18 1 0.85176 4.4506 50.479 -8.61133
19 1 2.98382 2.22585 53.3633 -8.89028
20 1 3.93156 2.23496 55.96 -8.90934
21 1 4.8346 2.22795 58.5406 -8.90518
22 1 5.74097 2.22482 61.1086 -8.90097
23 1 6.64742 2.2241 63.6736 -8.90013
24 1 7.55388 2.22415 66.2378 -8.90005
25 1 8.46035 2.22445 68.8016 -8.90001
26 1 3.55662 30.9772 51.393 -8.35577
27 1 4.55007 0.0164547 53.8649 -8.94369
28 1 5.44007 0.0114455 56.4166 -8.89225
29 1 6.34612 0.00733848 58.974 -8.89217
30 1 7.25235 0.00489149 61.5361 -8.89904
31 1 8.15848 0.00408823 64.1002 -8.89991
32 1 5.1033 2.21438 51.7756 -8.69255
33 1 6.0592 2.23403 54.2577 -8.72337
34 1 6.94599 2.2326 56.8189 -8.88191
35 1 7.85484 2.22623 59.3954 -8.90374
36 1 6.62958 0.0238321 51.9492 -8.91045
37 1 7.51408 0.0180152 54.679 -8.86986
38 1 8.45715 0.00967217 57.263 -8.9162
39 1 8.21882 2.25646 52.5027 -8.86684
40 1 1.20943 0.00619779 59.8277 -8.90091
41 1 2.11565 0.00448543 62.3913 -8.89991
42 1 3.02193 0.00401826 64.9552 -8.89995
43 1 3.92828 0.00408709 67.5192 -8.89999
44 1 4.83467 0.00441774 70.0833 -8.89994
45 1 5.74107 0.00502632 72.6472 -8.9
46 1 0.604176 2.22449 61.9636 -8.90109
47 1 1.51083 2.22411 64.5285 -8.90028
48 1 2.41737 2.22425 67.0925 -8.90006
49 1 3.32386 2.22459 69.6562 -8.89999
50 1 4.23034 2.22534 72.2199 -8.89999
51 1 0.906792 0.0040454 66.6645 -8.89999
52 1 1.8132 0.00427012 69.2286 -8.9
53 1 2.71962 0.00468884 71.7925 -8.89999
54 1 1.20885 2.22487 71.3654 -8.9
55 1 0.604578 0.00502632 73.5018 -8.9
56 1 1.51102 0.00502632 76.0656 -8.89998
57 1 2.41746 0.00502632 78.6294 -8.89998
58 1 3.3239 0.00502632 81.1932 -8.89998
59 1 4.23034 0.00502632 83.757 -8.89998
60 1 5.13678 0.00502632 86.3208 -8.89998
61 1 6.04322 0.00502632 88.8846 -8.89998
62 1 6.94966 0.00502632 91.4484 -8.89998
63 1 7.8561 0.00502632 94.0122 -8.89998
64 1 0.906725 2.22534 78.2021 -8.89998
65 1 1.81316 2.22534 80.7659 -8.89998
66 1 2.7196 2.22534 83.3297 -8.89998
67 1 3.62604 2.22534 85.8935 -8.89998
68 1 4.53248 2.22534 88.4573 -8.89998
69 1 5.43892 2.22534 91.0211 -8.89998
70 1 6.34536 2.22534 93.5849 -8.89998
71 1 7.2518 2.22534 96.1487 -8.91055
72 1 2.11531 2.22534 73.9291 -8.89999
73 1 3.02175 2.22534 76.4929 -8.89998
74 1 3.92819 2.22534 79.0567 -8.89998
75 1 4.83463 2.22534 81.6205 -8.89998
76 1 5.74107 2.22534 84.1843 -8.89998
77 1 6.64751 2.22534 86.7481 -8.89998
78 1 7.55395 2.22534 89.3119 -8.89998
79 1 8.46039 2.22534 91.8757 -8.89998
80 1 3.62604 0.00502632 74.3564 -8.9
81 1 4.53248 0.00502632 76.9202 -8.89998
82 1 5.43892 0.00502632 79.484 -8.89998
83 1 6.34536 0.00502632 82.0478 -8.89998
84 1 7.2518 0.00502632 84.6116 -8.89998
85 1 8.15824 0.00502632 87.1754 -8.89998
86 1 5.13678 2.22534 74.7837 -8.89997
87 1 6.04322 2.22534 77.3475 -8.89998
88 1 6.94966 2.22534 79.9113 -8.89998
89 1 7.8561 2.22534 82.4751 -8.89998
90 1 6.64751 0.00502632 75.211 -8.89999
91 1 7.55395 0.00502632 77.7748 -8.89998
92 1 8.46039 0.00502632 80.3386 -8.89998
93 1 8.15824 2.22534 75.6383 -8.89997
94 1 1.20887 0.00502632 82.9024 -8.89998
95 1 2.11531 0.00502632 85.4662 -8.89998
96 1 3.02175 0.00502632 88.03 -8.89998
97 1 3.92819 0.00502632 90.5938 -8.89998
98 1 4.83463 0.00502632 93.1576 -8.89998
99 1 5.74107 0.00502632 95.7214 -8.89999
100 1 0.604578 2.22534 85.0389 -8.89998
101 1 1.51102 2.22534 87.6027 -8.89998
102 1 2.41746 2.22534 90.1665 -8.89998
103 1 3.3239 2.22534 92.7303 -8.89998
104 1 4.23034 2.22534 95.2941 -8.89998
105 1 0.906725 0.00502632 89.7392 -8.89998
106 1 1.81316 0.00502632 92.303 -8.89998
107 1 2.7196 0.00502632 94.8668 -8.89998
108 1 1.20887 2.22534 94.4395 -8.89998
109 1 0.604578 0.00502632 96.576 -8.91611
110 1 1.51102 0.00502632 99.1398 -7.83773
111 1 2.11531 2.22534 97.0033 -8.92667
112 1 3.02175 2.22534 99.5671 -7.85861
113 1 3.62604 0.00502632 97.4306 -8.93195
114 1 4.53248 0.00502632 99.9944 -7.60504
115 1 5.13678 2.22534 97.8579 -8.94308
116 1 6.04322 2.22534 100.422 -6.80401
117 1 6.64751 0.00502632 98.2852 -8.6482
118 1 8.15824 2.22534 98.7125 -8.16469
119 1 1.52423 4.44331 53.0403 -8.40542
120 1 2.42185 4.44522 55.5527 -8.86523
121 1 3.32368 4.44333 58.1155 -8.89759
122 1 4.22948 4.44333 60.6833 -8.90241
123 1 5.13632 4.44392 63.248 -8.9005
124 1 6.04297 4.4444 65.8115 -8.90009
125 1 6.94954 4.44479 68.3749 -8.89999
126 1 7.85606 4.44518 70.9383 -8.90001
127 1 0.893908 6.6592 55.165 -8.90704
128 1 1.81232 6.66037 57.7034 -8.89363
129 1 2.71836 6.66308 60.2624 -8.89728
130 1 3.62535 6.66445 62.8234 -8.89947
131 1 4.53212 6.66507 65.3855 -8.89984
132 1 5.43873 6.6654 67.9482 -8.89994
133 1 6.34531 6.66566 70.5113 -8.90002
134 1 7.2518 6.66597 73.0745 -8.89993
135 1 0.817791 8.891 50.5281 -8.53316
136 1 2.97897 6.67291 53.3939 -8.93752
137 1 3.92805 6.65801 55.9818 -8.91056
138 1 4.83224 6.65992 58.5546 -8.90589
139 1 5.74012 6.66332 61.1156 -8.90008
140 1 6.647 6.66461 63.6773 -8.89968
141 1 7.55366 6.66517 66.2397 -8.89986
142 1 8.46025 6.66547 68.8025 -8.89992
143 1 3.56515 4.51666 51.3092 -8.68247
144 1 4.55262 4.45472 53.7968 -8.92097
145 1 5.44043 4.44387 56.3948 -8.89179
146 1 6.34395 4.44272 58.9713 -8.89586
147 1 7.25105 4.44342 61.5379 -8.90025
148 1 8.15781 4.44406 64.1023 -8.90014
149 1 5.11362 6.75904 51.8164 -8.53088
150 1 6.06196 6.66311 54.2924 -8.72938
151 1 6.94421 6.65519 56.8417 -8.88228
152 1 7.85417 6.66151 59.4065 -8.90138
153 1 6.56913 4.47038 51.786 -8.99759
154 1 7.53311 4.4446 54.6229 -8.87089
155 1 8.45404 4.44206 57.2538 -8.92325
156 1 8.24377 6.64258 52.5697 -8.81525
157 1 1.20762 4.44319 59.8279 -8.90272
158 1 2.1146 4.4438 62.3934 -8.90057
159 1 3.0214 4.44429 64.9571 -8.9001
160 1 3.92802 4.44468 67.5204 -8.89999
161 1 4.83456 4.44508 70.0838 -8.90007
162 1 5.74107 4.44566 72.6472 -8.89996
163 1 0.603575 6.66396 61.9688 -8.90025
164 1 1.51051 6.6649 64.5313 -8.89999
165 1 2.4172 6.66531 67.0939 -8.89993
166 1 3.32376 6.66558 69.6569 -8.89989
167 1 4.23034 6.66597 72.2199 -8.89997
168 1 0.906481 4.44455 66.6659 -8.90005
169 1 1.81305 4.44492 69.2294 -8.89999
170 1 2.71956 4.44534 71.7928 -8.89999
171 1 1.20882 6.66573 71.3657 -8.90002
172 1 0.604578 4.44566 73.5018 -8.89996
173 1 1.51102 4.44566 76.0656 -8.89997
174 1 2.41746 4.44566 78.6294 -8.89998
175 1 3.3239 4.44566 81.1932 -8.89998
176 1 4.23034 4.44566 83.757 -8.89998
177 1 5.13678 4.44566 86.3208 -8.89998
178 1 6.04322 4.44566 88.8846 -8.89998
179 1 6.94966 4.44566 91.4484 -8.89998
180 1 7.8561 4.44566 94.0122 -8.89998
181 1 0.906725 6.66597 78.2021 -8.89998
182 1 1.81316 6.66597 80.7659 -8.89998
183 1 2.7196 6.66597 83.3297 -8.89998
184 1 3.62604 6.66597 85.8935 -8.89998
185 1 4.53248 6.66597 88.4573 -8.89998
186 1 5.43892 6.66597 91.0211 -8.89998
187 1 6.34536 6.66597 93.5849 -8.89998
188 1 7.2518 6.66597 96.1487 -8.91055
189 1 2.11531 6.66597 73.9291 -8.89996
190 1 3.02175 6.66597 76.4929 -8.89996
191 1 3.92819 6.66597 79.0567 -8.89998
192 1 4.83463 6.66597 81.6205 -8.89998
193 1 5.74107 6.66597 84.1843 -8.89998
194 1 6.64751 6.66597 86.7481 -8.89998
195 1 7.55395 6.66597 89.3119 -8.89998
196 1 8.46039 6.66597 91.8757 -8.89998
197 1 3.62604 4.44566 74.3564 -8.89993
198 1 4.53248 4.44566 76.9202 -8.89998
199 1 5.43892 4.44566 79.484 -8.89998
200 1 6.34536 4.44566 82.0478 -8.89998
201 1 7.2518 4.44566 84.6116 -8.89998
202 1 8.15824 4.44566 87.1754 -8.89998
203 1 5.13678 6.66597 74.7837 -8.89993
204 1 6.04322 6.66597 77.3475 -8.89998
205 1 6.94966 6.66597 79.9113 -8.89998
206 1 7.8561 6.66597 82.4751 -8.89998
207 1 6.64751 4.44566 75.211 -8.89995
208 1 7.55395 4.44566 77.7748 -8.89998
209 1 8.46039 4.44566 80.3386 -8.89998
210 1 8.15824 6.66597 75.6383 -8.89995
211 1 1.20887 4.44566 82.9024 -8.89998
212 1 2.11531 4.44566 85.4662 -8.89998
213 1 3.02175 4.44566 88.03 -8.89998
214 1 3.92819 4.44566 90.5938 -8.89998
215 1 4.83463 4.44566 93.1576 -8.89998
216 1 5.74107 4.44566 95.7214 -8.89999
217 1 0.604578 6.66597 85.0389 -8.89998
218 1 1.51102 6.66597 87.6027 -8.89998
219 1 2.41746 6.66597 90.1665 -8.89998
220 1 3.3239 6.66597 92.7303 -8.89998
221 1 4.23034 6.66597 95.2941 -8.89998
222 1 0.906725 4.44566 89.7392 -8.89998
223 1 1.81316 4.44566 92.303 -8.89998
224 1 2.7196 4.44566 94.8668 -8.89998
225 1 1.20887 6.66597 94.4395 -8.89998
226 1 0.604578 4.44566 96.576 -8.91611
227 1 1.51102 4.44566 99.1398 -7.83773
228 1 2.11531 6.66597 97.0033 -8.92667
229 1 3.02175 6.66597 99.5671 -7.85861
230 1 3.62604 4.44566 97.4306 -8.93195
231 1 4.53248 4.44566 99.9944 -7.60504
232 1 5.13678 6.66597 97.8579 -8.94308
233 1 6.04322 6.66597 100.422 -6.80401
234 1 6.64751 4.44566 98.2852 -8.6482
235 1 8.15824 6.66597 98.7125 -8.16469
236 1 0.0858058 11.13 52.5697 -8.81525
237 1 2.4145 8.88672 55.6025 -8.84183
238 1 3.32033 8.88674 58.1374 -8.88671
239 1 4.22913 8.88651 60.692 -8.89845
240 1 5.1362 8.88637 63.2514 -8.8995
241 1 6.04289 8.88631 65.8131 -8.89979
242 1 6.94949 8.88629 68.3756 -8.89989
243 1 7.85605 8.88629 70.9386 -8.90001
244 1 0.894655 11.1131 55.1671 -8.90596
245 1 1.81265 11.1126 57.7036 -8.89334
246 1 2.71845 11.1098 60.2623 -8.89727
247 1 3.62536 11.1083 62.8233 -8.89947
248 1 4.53211 11.1076 65.3855 -8.89984
249 1 5.43873 11.1072 67.9482 -8.89994
250 1 6.3453 11.1069 70.5113 -8.90002
251 1 7.2518 11.1066 73.0745 -8.89993
252 1 0.851857 13.3212 50.4798 -8.62992
253 1 2.97652 11.1017 53.3897 -8.93041
254 1 3.92772 11.1168 55.9801 -8.91013
255 1 4.83219 11.1136 58.5539 -8.90591
256 1 5.74009 11.1096 61.1154 -8.90015
257 1 6.64697 11.108 63.6772 -8.89971
258 1 7.55364 11.1074 66.2397 -8.89987
259 1 8.46024 11.1071 68.8025 -8.89992
260 1 1.42584 8.88304 53.1285 -8.42103
261 1 4.5646 8.88857 53.9457 -8.9139
262 1 5.43787 8.88719 56.4651 -8.8685
263 1 6.34499 8.88662 58.9935 -8.88413
264 1 7.25142 8.88637 61.5456 -8.89734
265 1 8.15783 8.88629 64.1053 -8.89934
266 1 5.11085 11.0202 51.8166 -8.57503
267 1 6.06131 11.1116 54.2917 -8.72754
268 1 6.944 11.1184 56.8411 -8.88268
269 1 7.85408 11.1113 59.4063 -8.90135
270 1 6.67153 8.88986 52.0228 -8.91117
271 1 7.49315 8.88748 54.7402 -8.84564
272 1 8.45472 8.88659 57.2864 -8.9186
273 1 8.23749 11.1317 52.5582 -8.82292
274 1 1.20719 8.88633 59.8393 -8.89859
275 1 2.11459 8.88635 62.398 -8.89947
276 1 3.02136 8.88633 64.9591 -8.89968
277 1 3.92797 8.8863 67.5213 -8.89984
278 1 4.83453 8.88629 70.0841 -8.90011
279 1 5.74107 8.88629 72.6472 -8.89992
280 1 0.603619 11.1086 61.9689 -8.90025
281 1 1.51053 11.1077 64.5312 -8.89998
282 1 2.41721 11.1073 67.0939 -8.89993
283 1 3.32376 11.107 69.6569 -8.89989
284 1 4.23034 11.1066 72.2199 -8.89997
285 1 0.90646 8.8863 66.6672 -8.89981
286 1 1.81303 8.88629 69.2299 -8.89991
287 1 2.71954 8.88629 71.793 -8.89997
288 1 1.20882 11.1069 71.3657 -8.90002
289 1 0.604578 8.88629 73.5018 -8.89992
290 1 1.51102 8.88629 76.0656 -8.89996
291 1 2.41746 8.88629 78.6294 -8.89998
292 1 3.3239 8.88629 81.1932 -8.89998
293 1 4.23034 8.88629 83.757 -8.89998
294 1 5.13678 8.88629 86.3208 -8.89998
295 1 6.04322 8.88629 88.8846 -8.89998
296 1 6.94966 8.88629 91.4484 -8.89998
297 1 7.8561 8.88629 94.0122 -8.89998
298 1 0.906725 11.1066 78.2021 -8.89998
299 1 1.81316 11.1066 80.7659 -8.89998
300 1 2.7196 11.1066 83.3297 -8.89998
301 1 3.62604 11.1066 85.8935 -8.89998
302 1 4.53248 11.1066 88.4573 -8.89998
303 1 5.43892 11.1066 91.0211 -8.89998
304 1 6.34536 11.1066 93.5849 -8.89998
305 1 7.2518 11.1066 96.1487 -8.91055
306 1 2.11531 11.1066 73.9291 -8.89996
307 1 3.02175 11.1066 76.4929 -8.89996
308 1 3.92819 11.1066 79.0567 -8.89998
309 1 4.83463 11.1066 81.6205 -8.89998
310 1 5.74107 11.1066 84.1843 -8.89998
311 1 6.64751 11.1066 86.7481 -8.89998
312 1 7.55395 11.1066 89.3119 -8.89998
313 1 8.46039 11.1066 91.8757 -8.89998
314 1 3.62604 8.88629 74.3564 -8.89989
315 1 4.53248 8.88629 76.9202 -8.89998
316 1 5.43892 8.88629 79.484 -8.89998
317 1 6.34536 8.88629 82.0478 -8.89998
318 1 7.2518 8.88629 84.6116 -8.89998
319 1 8.15824 8.88629 87.1754 -8.89998
320 1 5.13678 11.1066 74.7837 -8.89993
321 1 6.04322 11.1066 77.3475 -8.89998
322 1 6.94966 11.1066 79.9113 -8.89998
323 1 7.8561 11.1066 82.4751 -8.89998
324 1 6.64751 8.88629 75.211 -8.89993
325 1 7.55395 8.88629 77.7748 -8.89998
326 1 8.46039 8.88629 80.3386 -8.89998
327 1 8.15824 11.1066 75.6383 -8.89995
328 1 1.20887 8.88629 82.9024 -8.89998
329 1 2.11531 8.88629 85.4662 -8.89998
330 1 3.02175 8.88629 88.03 -8.89998
331 1 3.92819 8.88629 90.5938 -8.89998
332 1 4.83463 8.88629 93.1576 -8.89998
333 1 5.74107 8.88629 95.7214 -8.89999
334 1 0.604578 11.1066 85.0389 -8.89998
335 1 1.51102 11.1066 87.6027 -8.89998
336 1 2.41746 11.1066 90.1665 -8.89998
337 1 3.3239 11.1066 92.7303 -8.89998
338 1 4.23034 11.1066 95.2941 -8.89998
339 1 0.906725 8.88629 89.7392 -8.89998
340 1 1.81316 8.88629 92.303 -8.89998
341 1 2.7196 8.88629 94.8668 -8.89998
342 1 1.20887 11.1066 94.4395 -8.89998
343 1 0.604578 8.88629 96.576 -8.91611
344 1 1.51102 8.88629 99.1398 -7.83773
345 1 2.11531 11.1066 97.0033 -8.92667
346 1 3.02175 11.1066 99.5671 -7.85861
347 1 3.62604 8.88629 97.4306 -8.93195
348 1 4.53248 8.88629 99.9944 -7.60504
349 1 5.13678 11.1066 97.8579 -8.94308
350 1 6.04322 11.1066 100.422 -6.80401
351 1 6.64751 8.88629 98.2852 -8.6482
352 1 8.15824 11.1066 98.7125 -8.16469
353 1 1.52508 13.3309 53.0403 -8.38665
354 1 2.42231 13.3286 55.5519 -8.8639
355 1 3.32361 13.3298 58.1147 -8.89804
356 1 4.22946 13.3295 60.6829 -8.90243
357 1 5.13627 13.3287 63.2478 -8.90055
358 1 6.04293 13.3282 65.8115 -8.90011
359 1 6.94952 13.3278 68.3749 -8.9
360 1 7.85605 13.3274 70.9383 -8.90001
361 1 0.894979 15.5404 55.1348 -8.90804
362 1 1.81381 15.5444 57.6883 -8.89551
363 1 2.71946 15.5474 60.2536 -8.89878
364 1 3.62585 15.5484 62.8188 -8.90013
365 1 4.53235 15.5485 65.3831 -8.9001
366 1 5.43885 15.5482 67.947 -8.90003
367 1 6.34534 15.5478 70.5108 -8.9
368 1 7.2518 15.5472 73.0745 -8.89998
369 1 0.814618 17.713 50.5045 -8.53537
370 1 2.98234 15.5478 53.3592 -8.89524
371 1 3.93034 15.5374 55.959 -8.90904
372 1 4.8347 15.5446 58.5396 -8.90582
373 1 5.74086 15.5477 61.1083 -8.90114
374 1 6.64732 15.5484 63.6736 -8.90016
375 1 7.55383 15.5484 66.2378 -8.90005
376 1 8.46033 15.5481 68.8016 -8.90001
377 1 3.56982 13.28 51.2894 -8.69805
378 1 4.54986 13.322 53.7879 -8.92202
379 1 5.43979 13.3298 56.3924 -8.89283
380 1 6.34391 13.3301 58.9707 -8.89604
381 1 7.25099 13.3292 61.5378 -8.90028
382 1 8.15776 13.3285 64.1024 -8.90017
383 1 5.10857 15.5801 51.7777 -8.69229
384 1 6.06234 15.5403 54.2593 -8.72674
385 1 6.94773 15.5399 56.8185 -8.88011
386 1 7.85503 15.5461 59.3954 -8.90373
387 1 6.5713 13.311 51.785 -9.00661
388 1 7.53282 13.3282 54.623 -8.87105
389 1 8.45419 13.3304 57.2535 -8.92162
390 1 8.22489 15.5144 52.5103 -8.88071
391 1 1.20765 13.3296 59.8279 -8.9026
392 1 2.11462 13.3289 62.3932 -8.90054
393 1 3.02139 13.3284 64.957 -8.9001
394 1 3.928 13.3279 67.5204 -8.89999
395 1 4.83455 13.3275 70.0838 -8.90007
396 1 5.74107 13.3269 72.6472 -8.89996
397 1 0.604229 15.5482 61.9634 -8.90105
398 1 1.51085 15.5485 64.5283 -8.90027
399 1 2.41737 15.5483 67.0924 -8.90006
400 1 3.32386 15.548 69.6562 -8.89999
401 1 4.23034 15.5472 72.2199 -8.89999
402 1 0.906502 13.3281 66.6659 -8.90004
403 1 1.81306 13.3277 69.2293 -8.89999
404 1 2.71956 13.3272 71.7928 -8.89999
405 1 1.20886 15.5477 71.3654 -8.89999
406 1 0.604578 13.3269 73.5018 -8.89995
407 1 1.51102 13.3269 76.0656 -8.89997
408 1 2.41746 13.3269 78.6294 -8.89998
409 1 3.3239 13.3269 81.1932 -8.89998
410 1 4.23034 13.3269 83.757 -8.89998
411 1 5.13678 13.3269 86.3208 -8.89998
412 1 6.04322 13.3269 88.8846 -8.89998
413 1 6.94966 13.3269 91.4484 -8.89998
414 1 7.8561 13.3269 94.0122 -8.89998
415 1 0.906725 15.5472 78.2021 -8.89998
416 1 1.81316 15.5472 80.7659 -8.89998
417 1 2.7196 15.5472 83.3297 -8.89998
418 1 3.62604 15.5472 85.8935 -8.89998
419 1 4.53248 15.5472 88.4573 -8.89998
420 1 5.43892 15.5472 91.0211 -8.89998
421 1 6.34536 15.5472 93.5849 -8.89998
422 1 7.2518 15.5472 96.1487 -8.91055
423 1 2.11531 15.5472 73.9291 -8.89998
424 1 3.02175 15.5472 76.4929 -8.89998
425 1 3.92819 15.5472 79.0567 -8.89998
426 1 4.83463 15.5472 81.6205 -8.89998
427 1 5.74107 15.5472 84.1843 -8.89998
428 1 6.64751 15.5472 86.7481 -8.89998
429 1 7.55395 15.5472 89.3119 -8.89998
430 1 8.46039 15.5472 91.8757 -8.89998
431 1 3.62604 13.3269 74.3564 -8.89993
432 1 4.53248 13.3269 76.9202 -8.89998
433 1 5.43892 13.3269 79.484 -8.89998
434 1 6.34536 13.3269 82.0478 -8.89998
435 1 7.2518 13.3269 84.6116 -8.89998
436 1 8.15824 13.3269 87.1754 -8.89998
437 1 5.13678 15.5472 74.7837 -8.89997
438 1 6.04322 15.5472 77.3475 -8.89998
439 1 6.94966 15.5472 79.9113 -8.89998
440 1 7.8561 15.5472 82.4751 -8.89998
441 1 6.64751 13.3269 75.211 -8.89995
442 1 7.55395 13.3269 77.7748 -8.89998
443 1 8.46039 13.3269 80.3386 -8.89998
444 1 8.15824 15.5472 75.6383 -8.89997
445 1 1.20887 13.3269 82.9024 -8.89998
446 1 2.11531 13.3269 85.4662 -8.89998
447 1 3.02175 13.3269 88.03 -8.89998
448 1 3.92819 13.3269 90.5938 -8.89998
449 1 4.83463 13.3269 93.1576 -8.89998
450 1 5.74107 13.3269 95.7214 -8.89999
451 1 0.604578 15.5472 85.0389 -8.89998
452 1 1.51102 15.5472 87.6027 -8.89998
453 1 2.41746 15.5472 90.1665 -8.89998
454 1 3.3239 15.5472 92.7303 -8.89998
455 1 4.23034 15.5472 95.2941 -8.89998
456 1 0.906725 13.3269 89.7392 -8.89998
457 1 1.81316 13.3269 92.303 -8.89998
458 1 2.7196 13.3269 94.8668 -8.89998
459 1 1.20887 15.5472 94.4395 -8.89998
460 1 0.604578 13.3269 96.576 -8.91611
461 1 1.51102 13.3269 99.1398 -7.83773
462 1 2.11531 15.5472 97.0033 -8.92667
463 1 3.02175 15.5472 99.5671 -7.85861
464 1 3.62604 13.3269 97.4306 -8.93195
465 1 4.53248 13.3269 99.9944 -7.60504
466 1 5.13678 15.5472 97.8579 -8.94308
467 1 6.04322 15.5472 100.422 -6.80401
468 1 6.64751 13.3269 98.2852 -8.6482
469 1 8.15824 15.5472 98.7125 -8.16469
470 1 15.394 19.9774 50.1674 -8.22174
471 1 1.47049 17.7649 53.0764 -8.5238
472 1 2.41745 17.7607 55.5709 -8.85966
473 1 3.325 17.7642 58.1184 -8.89109
474 1 4.23082 17.767 60.6811 -8.89956
475 1 5.13699 17.7683 63.2454 -8.89999
476 1 6.0433 17.7685 65.8097 -8.89998
477 1 6.94969 17.7684 68.3739 -8.89999
478 1 7.8561 17.768 70.9379 -8.89997
479 1 0.90261 19.9883 55.154 -8.90702
480 1 1.81641 19.9886 57.6961 -8.89518
481 1 2.72094 19.9883 60.2546 -8.89742
482 1 3.62665 19.9885 62.8176 -8.89939
483 1 4.53279 19.9886 65.3818 -8.89989
484 1 5.43907 19.9885 67.9461 -8.89996
485 1 6.34541 19.9883 70.5104 -8.89994
486 1 7.2518 19.9879 73.0745 -8.90001
487 1 0.8231 22.2689 50.4872 -8.58166
488 1 2.98174 19.9866 53.4107 -8.98569
489 1 3.93298 19.9882 55.9788 -8.89846
490 1 4.83547 19.988 58.5452 -8.90282
491 1 5.74176 19.9884 61.1083 -8.89964
492 1 6.64792 19.9886 63.6722 -8.89963
493 1 7.55417 19.9886 66.2366 -8.89992
494 1 8.46049 19.9885 68.8009 -8.89998
495 1 3.52889 17.8503 51.4268 -8.07695
496 1 4.55556 17.7539 53.8769 -8.94835
497 1 5.4426 17.7595 56.4174 -8.89358
498 1 6.3464 17.7647 58.9742 -8.89182
499 1 7.2522 17.7675 61.5363 -8.89888
500 1 8.15839 17.7684 64.1003 -8.89988
501 1 5.1381 19.9259 51.8596 -8.31952
502 1 6.07152 19.9799 54.3259 -8.70382
503 1 6.95468 19.9884 56.847 -8.86925
504 1 7.85747 19.9884 59.4011 -8.89874
505 1 6.65266 17.7413 51.9569 -8.89756
506 1 7.53369 17.7526 54.673 -8.8847
507 1 8.45879 17.7622 57.2637 -8.91591
508 1 8.21293 19.9921 52.612 -8.8615
509 1 1.20929 17.7666 59.8268 -8.90077
510 1 2.11562 17.7681 62.3907 -8.89993
511 1 3.0219 17.7685 64.955 -8.89997
512 1 3.92825 17.7685 67.5192 -8.9
513 1 4.83465 17.7682 70.0832 -8.89994
514 1 5.74107 17.7675 72.6472 -8.9
515 1 0.605343 19.9887 61.963 -8.89984
516 1 1.51141 19.9887 64.527 -8.89993
517 1 2.41766 19.9886 67.0913 -8.89998
518 1 3.324 19.9884 69.6556 -8.90003
519 1 4.23034 19.9879 72.2199 -8.89998
520 1 0.906826 17.7685 66.6644 -8.9
521 1 1.81321 17.7683 69.2285 -8.9
522 1 2.71962 17.7679 71.7925 -8.89999
523 1 1.20891 19.9882 71.3651 -8.89995
524 1 0.604578 17.7675 73.5018 -8.9
525 1 1.51102 17.7675 76.0656 -8.89998
526 1 2.41746 17.7675 78.6294 -8.89998
527 1 3.3239 17.7675 81.1932 -8.89998
528 1 4.23034 17.7675 83.757 -8.89998
529 1 5.13678 17.7675 86.3208 -8.89998
530 1 6.04322 17.7675 88.8846 -8.89998
531 1 6.94966 17.7675 91.4484 -8.89998
532 1 7.8561 17.7675 94.0122 -8.89998
533 1 0.906725 19.9879 78.2021 -8.89998
534 1 1.81316 19.9879 80.7659 -8.89998
535 1 2.7196 19.9879 83.3297 -8.89998
536 1 3.62604 19.9879 85.8935 -8.89998
537 1 4.53248 19.9879 88.4573 -8.89998
538 1 5.43892 19.9879 91.0211 -8.89998
539 1 6.34536 19.9879 93.5849 -8.89998
540 1 7.2518 19.9879 96.1487 -8.91055
541 1 2.11531 19.9879 73.9291 -8.89999
542 1 3.02175 19.9879 76.4929 -8.89999
543 1 3.92819 19.9879 79.0567 -8.89998
544 1 4.83463 19.9879 81.6205 -8.89998
545 1 5.74107 19.9879 84.1843 -8.89998
546 1 6.64751 19.9879 86.7481 -8.89998
547 1 7.55395 19.9879 89.3119 -8.89998
548 1 8.46039 19.9879 91.8757 -8.89998
549 1 3.62604 17.7675 74.3564 -8.9
550 1 4.53248 17.7675 76.9202 -8.89998
551 1 5.43892 17.7675 79.484 -8.89998
552 1 6.34536 17.7675 82.0478 -8.89998
553 1 7.2518 17.7675 84.6116 -8.89998
554 1 8.15824 17.7675 87.1754 -8.89998
555 1 5.13678 19.9879 74.7837 -8.90001
556 1 6.04322 19.9879 77.3475 -8.89998
557 1 6.94966 19.9879 79.9113 -8.89998
558 1 7.8561 19.9879 82.4751 -8.89998
559 1 6.64751 17.7675 75.211 -8.89999
560 1 7.55395 17.7675 77.7748 -8.89998
561 1 8.46039 17.7675 80.3386 -8.89998
562 1 8.15824 19.9879 75.6383 -8.9
563 1 1.20887 17.7675 82.9024 -8.89998
564 1 2.11531 17.7675 85.4662 -8.89998
565 1 3.02175 17.7675 88.03 -8.89998
566 1 3.92819 17.7675 90.5938 -8.89998
567 1 4.83463 17.7675 93.1576 -8.89998
568 1 5.74107 17.7675 95.7214 -8.89999
569 1 0.604578 19.9879 85.0389 -8.89998
570 1 1.51102 19.9879 87.6027 -8.89998
571 1 2.41746 19.9879 90.1665 -8.89998
572 1 3.3239 19.9879 92.7303 -8.89998
573 1 4.23034 19.9879 95.2941 -8.89998
574 1 0.906725 17.7675 89.7392 -8.89998
575 1 1.81316 17.7675 92.303 -8.89998
576 1 2.7196 17.7675 94.8668 -8.89998
577 1 1.20887 19.9879 94.4395 -8.89998
578 1 0.604578 17.7675 96.576 -8.91611
579 1 1.51102 17.7675 99.1398 -7.83773
580 1 2.11531 19.9879 97.0033 -8.92667
581 1 3.02175 19.9879 99.5671 -7.85861
582 1 3.62604 17.7675 97.4306 -8.93195
583 1 4.53248 17.7675 99.9944 -7.60504
584 1 5.13678 19.9879 97.8579 -8.94308
585 1 6.04322 19.9879 100.422 -6.80401
586 1 6.64751 17.7675 98.2852 -8.6482
587 1 8.15824 19.9879 98.7125 -8.16469
588 1 1.51466 22.2077 53.0406 -8.5565
589 1 2.42108 22.2123 55.5537 -8.87557
590 1 3.32542 22.2097 58.1131 -8.89636
591 1 4.23111 22.2089 60.6787 -8.90071
592 1 5.13729 22.2087 63.2439 -8.90017
593 1 6.04353 22.2086 65.8087 -8.9
594 1 6.94982 22.2085 68.3733 -8.89999
595 1 7.85615 22.2084 70.9376 -8.89994
596 1 0.89775 24.4304 55.1228 -8.89604
597 1 1.81432 24.428 57.6843 -8.89746
598 1 2.7203 24.4281 60.2505 -8.89919
599 1 3.62658 24.4283 62.8161 -8.90005
600 1 4.53284 24.4284 65.3811 -8.90004
601 1 5.43913 24.4285 67.9457 -8.89998
602 1 6.34543 24.4285 70.5102 -8.89992
603 1 7.2518 24.4285 73.0745 -8.90002
604 1 0.813973 26.5828 50.4982 -8.53998
605 1 2.98088 24.4321 53.3639 -8.89617
606 1 3.93136 24.4241 55.9585 -8.91341
607 1 4.83587 24.4271 58.5373 -8.90658
608 1 5.74185 24.428 61.1054 -8.90104
609 1 6.648 24.4284 63.671 -8.90012
610 1 7.55425 24.4285 66.236 -8.90002
611 1 8.46055 24.4285 68.8006 -8.9
612 1 3.56557 22.1339 51.3366 -8.681
613 1 4.55339 22.2048 53.8186 -8.93578
614 1 5.44083 22.2105 56.4016 -8.89397
615 1 6.34609 22.2099 58.9688 -8.89502
616 1 7.25241 22.2091 61.5339 -8.89951
617 1 8.15864 22.2088 64.0989 -8.89999
618 1 5.09853 24.4314 51.7705 -8.69819
619 1 6.05772 24.4272 54.2537 -8.71953
620 1 6.94828 24.4257 56.8129 -8.88311
621 1 7.85598 24.428 59.3915 -8.90383
622 1 6.57262 22.1889 51.8194 -8.98231
623 1 7.52291 22.2134 54.6398 -8.8788
624 1 8.45657 22.2113 57.2541 -8.91579
625 1 8.20288 24.4152 52.4995 -8.90795
626 1 1.20977 22.2097 59.8239 -8.90202
627 1 2.11593 22.2088 62.3891 -8.90013
628 1 3.02214 22.2086 64.9538 -8.89999
629 1 3.92841 22.2085 67.5184 -8.9
630 1 4.83473 22.2084 70.0829 -8.89985
631 1 5.74107 22.2082 72.6472 -8.90002
632 1 0.605008 24.4285 61.9604 -8.90107
633 1 1.51139 24.4285 64.526 -8.90022
634 1 2.4177 24.4285 67.0909 -8.90004
635 1 3.32404 24.4285 69.6554 -8.90006
636 1 4.23034 24.4285 72.2199 -8.89998
637 1 0.906995 22.2086 66.6636 -8.89999
638 1 1.8133 22.2085 69.228 -8.89999
639 1 2.71966 22.2083 71.7923 -8.89998
640 1 1.20893 24.4285 71.3649 -8.89993
641 1 0.604578 22.2082 73.5018 -8.90002
642 1 1.51102 22.2082 76.0656 -8.89999
643 1 2.41746 22.2082 78.6294 -8.89998
644 1 3.3239 22.2082 81.1932 -8.89998
645 1 4.23034 22.2082 83.757 -8.89998
646 1 5.13678 22.2082 86.3208 -8.89998
647 1 6.04322 22.2082 88.8846 -8.89998
648 1 6.94966 22.2082 91.4484 -8.89998
649 1 7.8561 22.2082 94.0122 -8.89998
650 1 0.906725 24.4285 78.2021 -8.89998
651 1 1.81316 24.4285 80.7659 -8.89998
652 1 2.7196 24.4285 83.3297 -8.89998
653 1 3.62604 24.4285 85.8935 -8.89998
654 1 4.53248 24.4285 88.4573 -8.89998
655 1 5.43892 24.4285 91.0211 -8.89998
656 1 6.34536 24.4285 93.5849 -8.89998
657 1 7.2518 24.4285 96.1487 -8.91055
658 1 2.11531 24.4285 73.9291 -8.89999
659 1 3.02175 24.4285 76.4929 -8.9
660 1 3.92819 24.4285 79.0567 -8.89998
661 1 4.83463 24.4285 81.6205 -8.89998
662 1 5.74107 24.4285 84.1843 -8.89998
663 1 6.64751 24.4285 86.7481 -8.89998
664 1 7.55395 24.4285 89.3119 -8.89998
665 1 8.46039 24.4285 91.8757 -8.89998
666 1 3.62604 22.2082 74.3564 -8.90006
667 1 4.53248 22.2082 76.9202 -8.89998
668 1 5.43892 22.2082 79.484 -8.89998
669 1 6.34536 22.2082 82.0478 -8.89998
670 1 7.2518 22.2082 84.6116 -8.89998
671 1 8.15824 22.2082 87.1754 -8.89998
672 1 5.13678 24.4285 74.7837 -8.90003
673 1 6.04322 24.4285 77.3475 -8.89998
674 1 6.94966 24.4285 79.9113 -8.89998
675 1 7.8561 24.4285 82.4751 -8.89998
676 1 6.64751 22.2082 75.211 -8.90002
677 1 7.55395 22.2082 77.7748 -8.89998
678 1 8.46039 22.2082 80.3386 -8.89998
679 1 8.15824 24.4285 75.6383 -8.90001
680 1 1.20887 22.2082 82.9024 -8.89998
681 1 2.11531 22.2082 85.4662 -8.89998
682 1 3.02175 22.2082 88.03 -8.89998
683 1 3.92819 22.2082 90.5938 -8.89998
684 1 4.83463 22.2082 93.1576 -8.89998
685 1 5.74107 22.2082 95.7214 -8.89999
686 1 0.604578 24.4285 85.0389 -8.89998
687 1 1.51102 24.4285 87.6027 -8.89998
688 1 2.41746 24.4285 90.1665 -8.89998
689 1 3.3239 24.4285 92.7303 -8.89998
690 1 4.23034 24.4285 95.2941 -8.89998
691 1 0.906725 22.2082 89.7392 -8.89998
692 1 1.81316 22.2082 92.303 -8.89998
693 1 2.7196 22.2082 94.8668 -8.89998
694 1 1.20887 24.4285 94.4395 -8.89998
695 1 0.604578 22.2082 96.576 -8.91611
696 1 1.51102 22.2082 99.1398 -7.83773
697 1 2.11531 24.4285 97.0033 -8.92667
698 1 3.02175 24.4285 99.5671 -7.85861
699 1 3.62604 22.2082 97.4306 -8.93195
700 1 4.53248 22.2082 99.9944 -7.60504
701 1 5.13678 24.4285 97.8579 -8.94308
702 1 6.04322 24.4285 100.422 -6.80401
703 1 6.64751 22.2082 98.2852 -8.6482
704 1 8.15824 24.4285 98.7125 -8.16469
705 1 15.4341 28.9266 50.1603 -8.26272
706 1 1.50351 26.6554 53.0512 -8.51852
707 1 2.41725 26.6441 55.5605 -8.86763
708 1 3.32538 26.6455 58.1151 -8.89437
709 1 4.2313 26.6472 60.6793 -8.90057
710 1 5.13739 26.648 63.2441 -8.90009
711 1 6.04357 26.6483 65.8087 -8.89998
712 1 6.94983 26.6484 68.3733 -8.89999
713 1 7.85616 26.6486 70.9376 -8.89993
714 1 0.904575 28.8689 55.158 -8.90639
715 1 1.81669 28.8684 57.6988 -8.89566
716 1 2.72111 28.8683 60.2559 -8.89707
717 1 3.62677 28.8682 62.8181 -8.8993
718 1 4.53285 28.8683 65.3819 -8.89986
719 1 5.4391 28.8684 67.9462 -8.89995
720 1 6.34542 28.8687 70.5104 -8.89994
721 1 7.2518 28.8691 73.0745 -8.90001
722 1 0.84155 0.0809624 50.5122 -8.51744
723 1 2.99171 28.8675 53.4139 -8.99907
724 1 3.93394 28.8677 55.984 -8.90028
725 1 4.83609 28.8679 58.5471 -8.90257
726 1 5.74212 28.8682 61.1088 -8.89945
727 1 6.64808 28.8682 63.6724 -8.89959
728 1 7.55423 28.8683 66.2366 -8.89991
729 1 8.46051 28.8685 68.8009 -8.89998
730 1 3.56401 26.7624 51.3822 -8.48585
731 1 4.55534 26.6394 53.8556 -8.93125
732 1 5.44465 26.6428 56.4083 -8.89446
733 1 6.34706 26.6456 58.9701 -8.89346
734 1 7.25267 26.6475 61.5341 -8.8994
735 1 8.15872 26.6482 64.0989 -8.89996
736 1 5.14697 28.88 51.8507 -8.27584
737 1 6.07373 28.8671 54.3219 -8.73509
738 1 6.95417 28.8669 56.8458 -8.87268
739 1 7.85775 28.8681 59.4007 -8.89926
740 1 6.61911 26.6369 51.9097 -8.89551
741 1 7.53808 26.6368 54.6451 -8.89398
742 1 8.45875 26.6443 57.2545 -8.91659
743 1 8.22489 28.8637 52.601 -8.86439
744 1 1.20944 26.6472 59.8242 -8.90206
745 1 2.11588 26.6479 62.3893 -8.90016
746 1 3.02214 26.6482 64.9539 -8.89999
747 1 3.92842 26.6484 67.5185 -8.9
748 1 4.83474 26.6485 70.0829 -8.89985
749 1 5.74107 26.6488 72.6472 -8.90001
750 1 0.605208 28.8684 61.9633 -8.89976
751 1 1.51137 28.8683 64.5272 -8.8999
752 1 2.41765 28.8684 67.0914 -8.89997
753 1 3.324 28.8686 69.6557 -8.90002
754 1 4.23034 28.8691 72.2199 -8.89998
755 1 0.906973 26.6484 66.6636 -8.9
756 1 1.8133 26.6485 69.2281 -8.9
757 1 2.71966 26.6487 71.7923 -8.89998
758 1 1.2089 28.8688 71.3651 -8.89995
759 1 0.604578 26.6488 73.5018 -8.90002
760 1 1.51102 26.6488 76.0656 -8.89999
761 1 2.41746 26.6488 78.6294 -8.89998
762 1 3.3239 26.6488 81.1932 -8.89998
763 1 4.23034 26.6488 83.757 -8.89998
764 1 5.13678 26.6488 86.3208 -8.89998
765 1 6.04322 26.6488 88.8846 -8.89998
766 1 6.94966 26.6488 91.4484 -8.89998
767 1 7.8561 26.6488 94.0122 -8.89998
768 1 0.906725 28.8691 78.2021 -8.89998