ITEM: TIMESTEP
0
ITEM: NUMBER OF ATOMS
2356
ITEM: BOX BOUNDS pp pp ss
0.0000000000000000e+00 1.6315918607298830e+01
0.0000000000000000e+00 2.2203152929257598e+01
-1.0016514113833294e-02 1.0043250887718011e+02
ITEM: ATOMS id type x y z c_eng
1 1 6.73271 4.42087 52.9977 -8.81295
2 1 7.5422 4.43793 55.5959 -8.90483
3 1 8.46006 4.43904 58.1319 -8.89357
4 1 9.36586 4.44203 60.6901 -8.89714
5 1 10.2727 4.44376 63.2507 -8.89938
6 1 11.1793 4.44466 65.8129 -8.8998
7 1 12.0858 4.44512 68.3758 -8.8999
8 1 12.9923 4.44541 70.9391 -8.89999
9 1 5.98315 6.66598 55.1712 -8.84695
10 1 6.94451 6.66598 57.7156 -8.91829
11 1 7.85472 6.66599 60.2675 -8.89862
12 1 8.76195 6.66599 62.8256 -8.8994
13 1 9.66858 6.66599 65.3866 -8.89963
14 1 10.5751 6.66599 67.9489 -8.89984
15 1 11.4816 6.666 70.5119 -8.89998
16 1 12.388 6.666 73.0753 -8.89991
17 1 7.46175 6.66598 50.9576 -8.52348
18 1 8.07312 6.66598 53.5589 -8.41721
19 1 9.06239 6.66598 56.0323 -8.84211
20 1 9.96797 6.66599 58.5664 -8.88665
21 1 10.8766 6.66599 61.1201 -8.89839
22 1 11.7835 6.66599 63.6791 -8.89941
23 1 12.6901 6.66599 66.2406 -8.89973
24 1 13.5966 6.66599 68.8032 -8.89986
25 1 9.01857 4.51247 50.8435 -8.61053
26 1 9.62538 4.45204 53.8211 -8.93757
27 1 10.5755 4.43617 56.4101 -8.91114
28 1 11.4798 4.43846 58.9825 -8.90608
29 1 12.3875 4.44236 61.5431 -8.90006
30 1 13.2943 4.44406 64.1047 -8.89962
31 1 10.1495 6.66598 51.9666 -7.75025
32 1 11.2133 6.66598 54.3772 -8.91095
33 1 12.0858 6.66598 56.8957 -8.86745
34 1 12.9928 6.66599 59.4227 -8.88386
35 1 11.7603 4.53723 52.2453 -8.55138
36 1 12.7095 4.44166 54.721 -8.73106
37 1 13.5917 4.43352 57.2702 -8.88293
38 1 13.321 6.66598 52.4547 -8.91126
39 1 6.34372 4.44036 59.8342 -8.90104
40 1 7.25096 4.44325 62.3963 -8.90014
41 1 8.15775 4.44443 64.9586 -8.89994
42 1 9.06432 4.445 67.5214 -8.8999
43 1 9.97081 4.44533 70.0846 -8.90004
44 1 10.8773 4.44568 72.648 -8.89993
45 1 5.74092 6.66599 61.9735 -8.89709
46 1 6.64715 6.66599 64.5328 -8.89924
47 1 7.55361 6.66599 67.0947 -8.89976
48 1 8.46007 6.666 69.6575 -8.89985
49 1 9.36655 6.666 72.2207 -8.89995
50 1 6.04284 4.44483 66.6671 -8.89983
51 1 6.94934 4.44522 69.2302 -8.89991
52 1 7.85579 4.4455 71.7936 -8.89996
53 1 6.34507 6.666 71.3664 -8.89999
54 1 5.74079 4.44568 73.5026 -8.89993
55 1 6.64723 4.44568 76.0663 -8.89997
56 1 7.55367 4.44568 78.6301 -8.89998
57 1 8.46011 4.44568 81.1939 -8.89998
58 1 9.36655 4.44568 83.7577 -8.89998
59 1 10.273 4.44568 86.3215 -8.89998
60 1 11.1794 4.44568 88.8853 -8.89998
61 1 12.0859 4.44568 91.4491 -8.89998
62 1 12.9923 4.44568 94.0129 -8.89998
63 1 6.04293 6.666 78.2028 -8.89998
64 1 6.94937 6.666 80.7666 -8.89998
65 1 7.85581 6.666 83.3304 -8.89998
66 1 8.76225 6.666 85.8942 -8.89998
67 1 9.66869 6.666 88.458 -8.89998
68 1 10.5751 6.666 91.0218 -8.89998
69 1 11.4816 6.666 93.5856 -8.89998
70 1 12.388 6.666 96.1494 -8.91055
71 1 7.25152 6.666 73.9298 -8.89994
72 1 8.15796 6.666 76.4936 -8.89997
73 1 9.0644 6.666 79.0574 -8.89998
74 1 9.97084 6.666 81.6212 -8.89998
75 1 10.8773 6.666 84.185 -8.89998
76 1 11.7837 6.666 86.7488 -8.89998
77 1 12.6902 6.666 89.3126 -8.89998
78 1 13.5966 6.666 91.8764 -8.89998
79 1 8.76225 4.44568 74.3571 -8.89994
80 1 9.66869 4.44568 76.9209 -8.89998
81 1 10.5751 4.44568 79.4847 -8.89998
82 1 11.4816 4.44568 82.0485 -8.89998
83 1 12.388 4.44568 84.6123 -8.89998
84 1 13.2945 4.44568 87.1761 -8.89998
85 1 10.273 6.666 74.7844 -8.89995
86 1 11.1794 6.666 77.3482 -8.89998
87 1 12.0859 6.666 79.912 -8.89998
88 1 12.9923 6.666 82.4758 -8.89998
89 1 11.7837 4.44568 75.2117 -8.89996
90 1 12.6902 4.44568 77.7755 -8.89998
91 1 13.5966 4.44568 80.3393 -8.89998
92 1 13.2945 6.666 75.639 -8.89996
93 1 6.34508 4.44568 82.9031 -8.89998
94 1 7.25152 4.44568 85.4669 -8.89998
95 1 8.15796 4.44568 88.0307 -8.89998
96 1 9.0644 4.44568 90.5945 -8.89998
97 1 9.97084 4.44568 93.1583 -8.89998
98 1 10.8773 4.44568 95.7221 -8.89999
99 1 5.74079 6.666 85.0396 -8.89998
100 1 6.64723 6.666 87.6034 -8.89998
101 1 7.55367 6.666 90.1672 -8.89998
102 1 8.46011 6.666 92.731 -8.89998
103 1 9.36655 6.666 95.2948 -8.89998
104 1 6.04293 4.44568 89.7399 -8.89998
105 1 6.94937 4.44568 92.3037 -8.89998
106 1 7.85581 4.44568 94.8675 -8.89998
107 1 6.34508 6.666 94.4402 -8.89998
108 1 5.74079 4.44568 96.5767 -8.91611
109 1 6.64723 4.44568 99.1405 -7.83773
110 1 7.25152 6.666 97.004 -8.92667
111 1 8.15796 6.666 99.5678 -7.85861
112 1 8.76225 4.44568 97.4313 -8.93195
113 1 9.66869 4.44568 99.9951 -7.60504
114 1 10.273 6.666 97.8586 -8.94308
115 1 11.1794 6.666 100.422 -6.80401
116 1 11.7837 4.44568 98.2859 -8.6482
117 1 13.2945 6.666 98.7132 -8.16469
118 1 5.71172 8.77377 50.5772 -8.33926
119 1 6.73271 8.91109 52.9977 -8.81295
120 1 7.5422 8.89404 55.5959 -8.90483
121 1 8.46006 8.89293 58.1319 -8.89357
122 1 9.36586 8.88995 60.6901 -8.89714
123 1 10.2727 8.88822 63.2507 -8.89938
124 1 11.1793 8.88732 65.8129 -8.8998
125 1 12.0858 8.88687 68.3758 -8.8999
126 1 12.9923 8.88659 70.9391 -8.89999
127 1 6.02166 11.1094 55.0512 -8.87376
128 1 6.94387 11.1121 57.6803 -8.92128
129 1 7.85506 11.1103 60.2545 -8.90255
130 1 8.76189 11.109 62.8202 -8.90053
131 1 9.66855 11.1081 65.3842 -8.9001
132 1 10.5751 11.1075 67.9479 -8.9
133 1 11.4816 11.1071 70.5116 -8.9
134 1 12.388 11.1066 73.0753 -8.89997
135 1 7.50137 11.1018 50.9077 -8.61231
136 1 8.17095 11.1147 53.4686 -8.409
137 1 9.06944 11.1091 55.98 -8.86355
138 1 9.97113 11.1106 58.5419 -8.89752
139 1 10.8769 11.1099 61.1099 -8.90231
140 1 11.7835 11.1087 63.6749 -8.90051
141 1 12.6901 11.1079 66.2388 -8.9001
142 1 13.5966 11.1074 68.8025 -8.9
143 1 9.01857 8.81948 50.8435 -8.61053
144 1 9.62538 8.87992 53.8211 -8.93757
145 1 10.5755 8.8958 56.4101 -8.91114
146 1 11.4798 8.89351 58.9826 -8.90608
147 1 12.3875 8.88962 61.5431 -8.90006
148 1 13.2943 8.88792 64.1047 -8.89962
149 1 10.2119 11.0351 51.7357 -8.68202
150 1 11.1993 11.0992 54.2236 -8.92306
151 1 12.0877 11.1103 56.8216 -8.89195
152 1 12.9915 11.111 59.3977 -8.89543
153 1 11.7603 8.79473 52.2453 -8.55138
154 1 12.7095 8.8903 54.721 -8.73106
155 1 13.5917 8.89845 57.2702 -8.88293
156 1 13.2183 11.0806 52.2169 -8.99696
157 1 6.34372 8.89162 59.8342 -8.90104
158 1 7.25096 8.88873 62.3963 -8.90014
159 1 8.15775 8.88755 64.9586 -8.89994
160 1 9.06432 8.88699 67.5214 -8.8999
161 1 9.97081 8.88666 70.0846 -8.90004
162 1 10.8773 8.88631 72.648 -8.89993
163 1 5.7404 11.1095 61.9646 -8.90015
164 1 6.64702 11.1084 64.5294 -8.90015
165 1 7.55358 11.1077 67.0933 -8.90004
166 1 8.46007 11.1072 69.657 -8.89998
167 1 9.36655 11.1066 72.2207 -8.89998
168 1 6.04284 8.88715 66.6671 -8.89983
169 1 6.94934 8.88677 69.2302 -8.89991
170 1 7.85579 8.8865 71.7936 -8.89996
171 1 6.34507 11.107 71.3661 -8.89999
172 1 5.74079 8.88631 73.5026 -8.89993
173 1 6.64723 8.88631 76.0663 -8.89997
174 1 7.55367 8.88631 78.6301 -8.89998
175 1 8.46011 8.88631 81.1939 -8.89998
176 1 9.36655 8.88631 83.7577 -8.89998
177 1 10.273 8.88631 86.3215 -8.89998
178 1 11.1794 8.88631 88.8853 -8.89998
179 1 12.0859 8.88631 91.4491 -8.89998
180 1 12.9923 8.88631 94.0129 -8.89998
181 1 6.04293 11.1066 78.2028 -8.89998
182 1 6.94937 11.1066 80.7666 -8.89998
183 1 7.85581 11.1066 83.3304 -8.89998
184 1 8.76225 11.1066 85.8942 -8.89998
185 1 9.66869 11.1066 88.458 -8.89998
186 1 10.5751 11.1066 91.0218 -8.89998
187 1 11.4816 11.1066 93.5856 -8.89998
188 1 12.388 11.1066 96.1494 -8.91055
189 1 7.25152 11.1066 73.9298 -8.89997
190 1 8.15796 11.1066 76.4936 -8.89998
191 1 9.0644 11.1066 79.0574 -8.89998
192 1 9.97084 11.1066 81.6212 -8.89998
193 1 10.8773 11.1066 84.185 -8.89998
194 1 11.7837 11.1066 86.7488 -8.89998
195 1 12.6902 11.1066 89.3126 -8.89998
196 1 13.5966 11.1066 91.8764 -8.89998
197 1 8.76225 8.88631 74.3571 -8.89994
198 1 9.66869 8.88631 76.9209 -8.89998
199 1 10.5751 8.88631 79.4847 -8.89998
200 1 11.4816 8.88631 82.0485 -8.89998
201 1 12.388 8.88631 84.6123 -8.89998
202 1 13.2945 8.88631 87.1761 -8.89998
203 1 10.273 11.1066 74.7844 -8.89997
204 1 11.1794 11.1066 77.3482 -8.89998
205 1 12.0859 11.1066 79.912 -8.89998
206 1 12.9923 11.1066 82.4758 -8.89998
207 1 11.7837 8.88631 75.2117 -8.89996
208 1 12.6902 8.88631 77.7755 -8.89998
209 1 13.5966 8.88631 80.3393 -8.89998
210 1 13.2945 11.1066 75.639 -8.89997
211 1 6.34508 8.88631 82.9031 -8.89998
212 1 7.25152 8.88631 85.4669 -8.89998
213 1 8.15796 8.88631 88.0307 -8.89998
214 1 9.0644 8.88631 90.5945 -8.89998
215 1 9.97084 8.88631 93.1583 -8.89998
216 1 10.8773 8.88631 95.7221 -8.89999
217 1 5.74079 11.1066 85.0396 -8.89998
218 1 6.64723 11.1066 87.6034 -8.89998
219 1 7.55367 11.1066 90.1672 -8.89998
220 1 8.46011 11.1066 92.731 -8.89998
221 1 9.36655 11.1066 95.2948 -8.89998
222 1 6.04293 8.88631 89.7399 -8.89998
223 1 6.94937 8.88631 92.3037 -8.89998
224 1 7.85581 8.88631 94.8675 -8.89998
225 1 6.34508 11.1066 94.4402 -8.89998
226 1 5.74079 8.88631 96.5767 -8.91611
227 1 6.64723 8.88631 99.1405 -7.83773
228 1 7.25152 11.1066 97.004 -8.92667
229 1 8.15796 11.1066 99.5678 -7.85861
230 1 8.76225 8.88631 97.4313 -8.93195
231 1 9.66869 8.88631 99.9951 -7.60504
232 1 10.273 11.1066 97.8586 -8.94308
233 1 11.1794 11.1066 100.422 -6.80401
234 1 11.7837 8.88631 98.2859 -8.6482
235 1 13.2945 11.1066 98.7132 -8.16469
236 1 5.65304 13.3584 50.5044 -8.58825
237 1 6.70319 13.2977 52.9316 -8.89162
238 1 7.54655 13.3229 55.5538 -8.90391
239 1 8.46159 13.3255 58.1129 -8.896
240 1 9.36677 13.3277 60.6795 -8.89903
241 1 10.273 13.3282 63.2454 -8.90022
242 1 11.1794 13.328 65.8103 -8.90013
243 1 12.0859 13.3277 68.3746 -8.90004
244 1 12.9923 13.3273 70.9386 -8.89998
245 1 6.01823 15.5341 55.0885 -8.88609
246 1 6.94715 15.5427 57.6855 -8.91623
247 1 7.85643 15.5462 60.2524 -8.90127
248 1 8.76265 15.5475 62.8174 -8.90001
249 1 9.66889 15.5478 65.3822 -8.9
250 1 10.5752 15.5477 67.9468 -8.9
251 1 11.4816 15.5475 70.5111 -8.89996
252 1 12.388 15.5473 73.0753 -8.90003
253 1 7.46128 15.4799 50.9291 -8.5322
254 1 8.14509 15.5504 53.485 -8.55917
255 1 9.06668 15.5414 55.9912 -8.8685
256 1 9.97249 15.5442 58.5433 -8.8931
257 1 10.878 15.5467 61.1072 -8.89996
258 1 11.7841 15.5477 63.6722 -8.90006
259 1 12.6903 15.5478 66.2371 -8.90001
260 1 13.5967 15.5476 68.8016 -8.90002
261 1 9.05105 13.3263 50.9188 -8.80106
262 1 9.63292 13.3295 53.7861 -8.89385
263 1 10.5788 13.3196 56.3838 -8.90933
264 1 11.4823 13.3257 58.965 -8.90565
265 1 12.3882 13.328 61.5344 -8.90099
266 1 13.2945 13.3282 64.1003 -8.90017
267 1 10.2021 15.6603 51.8138 -8.38727
268 1 11.199 15.537 54.2856 -8.93759
269 1 12.0893 15.5411 56.8378 -8.89411
270 1 12.9934 15.5449 59.3981 -8.89236
271 1 11.7558 13.337 52.201 -8.69348
272 1 12.7076 13.3213 54.6842 -8.71956
273 1 13.5949 13.3221 57.242 -8.88041
274 1 13.2738 15.5335 52.3626 -8.90927
275 1 6.34434 13.327 59.8205 -8.90404
276 1 7.25139 13.3282 62.3897 -8.90119
277 1 8.15793 13.3281 64.9553 -8.90032
278 1 9.0644 13.3278 67.5198 -8.90009
279 1 9.97084 13.3274 70.084 -8.89997
280 1 10.8773 13.3269 72.648 -8.90001
281 1 5.74133 15.5471 61.9621 -8.8992
282 1 6.64745 15.5477 64.5272 -8.89997
283 1 7.55377 15.5477 67.0919 -8.90003
284 1 8.46016 15.5476 69.6564 -8.90005
285 1 9.36655 15.5473 72.2207 -8.9
286 1 6.04294 13.3279 66.665 -8.90007
287 1 6.94938 13.3276 69.2293 -8.90002
288 1 7.85582 13.3272 71.7933 -8.89999
289 1 6.3451 15.5475 71.3658 -8.89996
290 1 5.74079 13.3269 73.5026 -8.9
291 1 6.64723 13.3269 76.0663 -8.89998
292 1 7.55367 13.3269 78.6301 -8.89998
293 1 8.46011 13.3269 81.1939 -8.89998
294 1 9.36655 13.3269 83.7577 -8.89998
295 1 10.273 13.3269 86.3215 -8.89998
296 1 11.1794 13.3269 88.8853 -8.89998
297 1 12.0859 13.3269 91.4491 -8.89998
298 1 12.9923 13.3269 94.0129 -8.89998
299 1 6.04293 15.5473 78.2028 -8.89998
300 1 6.94937 15.5473 80.7666 -8.89998
301 1 7.85581 15.5473 83.3304 -8.89998
302 1 8.76225 15.5473 85.8942 -8.89998
303 1 9.66869 15.5473 88.458 -8.89998
304 1 10.5751 15.5473 91.0218 -8.89998
305 1 11.4816 15.5473 93.5856 -8.89998
306 1 12.388 15.5473 96.1494 -8.91055
307 1 7.25152 15.5473 73.9298 -8.90001
308 1 8.15796 15.5473 76.4936 -8.89999
309 1 9.0644 15.5473 79.0574 -8.89998
310 1 9.97084 15.5473 81.6212 -8.89998
311 1 10.8773 15.5473 84.185 -8.89998
312 1 11.7837 15.5473 86.7488 -8.89998
313 1 12.6902 15.5473 89.3126 -8.89998
314 1 13.5966 15.5473 91.8764 -8.89998
315 1 8.76225 13.3269 74.3571 -8.9
316 1 9.66869 13.3269 76.9209 -8.89998
317 1 10.5751 13.3269 79.4847 -8.89998
318 1 11.4816 13.3269 82.0485 -8.89998
319 1 12.388 13.3269 84.6123 -8.89998
320 1 13.2945 13.3269 87.1761 -8.89998
321 1 10.273 15.5473 74.7844 -8.90001
322 1 11.1794 15.5473 77.3482 -8.89998
323 1 12.0859 15.5473 79.912 -8.89998
324 1 12.9923 15.5473 82.4758 -8.89998
325 1 11.7837 13.3269 75.2117 -8.89999
326 1 12.6902 13.3269 77.7755 -8.89998
327 1 13.5966 13.3269 80.3393 -8.89998
328 1 13.2945 15.5473 75.639 -8.89999
329 1 6.34508 13.3269 82.9031 -8.89998
330 1 7.25152 13.3269 85.4669 -8.89998
331 1 8.15796 13.3269 88.0307 -8.89998
332 1 9.0644 13.3269 90.5945 -8.89998
333 1 9.97084 13.3269 93.1583 -8.89998
334 1 10.8773 13.3269 95.7221 -8.89999
335 1 5.74079 15.5473 85.0396 -8.89998
336 1 6.64723 15.5473 87.6034 -8.89998
337 1 7.55367 15.5473 90.1672 -8.89998
338 1 8.46011 15.5473 92.731 -8.89998
339 1 9.36655 15.5473 95.2948 -8.89998
340 1 6.04293 13.3269 89.7399 -8.89998
341 1 6.94937 13.3269 92.3037 -8.89998
342 1 7.85581 13.3269 94.8675 -8.89998
343 1 6.34508 15.5473 94.4402 -8.89998
344 1 5.74079 13.3269 96.5767 -8.91611
345 1 6.64723 13.3269 99.1405 -7.83773
346 1 7.25152 15.5473 97.004 -8.92667
347 1 8.15796 15.5473 99.5678 -7.85861
348 1 8.76225 13.3269 97.4313 -8.93195
349 1 9.66869 13.3269 99.9951 -7.60504
350 1 10.273 15.5473 97.8586 -8.94308
351 1 11.1794 15.5473 100.422 -6.80401
352 1 11.7837 13.3269 98.2859 -8.6482
353 1 13.2945 15.5473 98.7132 -8.16469
354 1 5.72471 17.7676 50.592 -8.23635
355 1 6.70364 17.7676 53.033 -8.8646
356 1 7.55064 17.7676 55.5816 -8.90854
357 1 8.46323 17.7676 58.1238 -8.89492
358 1 9.36791 17.7676 60.6819 -8.89714
359 1 10.2736 17.7676 63.245 -8.89926
360 1 11.1797 17.7676 65.8095 -8.89989
361 1 12.086 17.7676 68.3741 -8.9
362 1 12.9923 17.7676 70.9384 -8.89995
363 1 6.01823 20.001 55.0885 -8.88609
364 1 6.94715 19.9924 57.6855 -8.91623
365 1 7.85643 19.9889 60.2524 -8.90127
366 1 8.76265 19.9876 62.8174 -8.90001
367 1 9.66889 19.9874 65.3822 -8.9
368 1 10.5752 19.9875 67.9468 -8.9
369 1 11.4816 19.9876 70.5111 -8.89996
370 1 12.388 19.9879 73.0753 -8.90003
371 1 7.46129 20.0553 50.9291 -8.5322
372 1 8.14509 19.9847 53.485 -8.55917
373 1 9.06668 19.9937 55.9912 -8.8685
374 1 9.97249 19.991 58.5433 -8.8931
375 1 10.878 19.9884 61.1072 -8.89996
376 1 11.7841 19.9875 63.6722 -8.90006
377 1 12.6903 19.9874 66.2371 -8.90001
378 1 13.5967 19.9875 68.8016 -8.90002
379 1 8.78998 17.7676 51.0697 -8.6466
380 1 9.63757 17.7676 53.8401 -9.0025
381 1 10.5803 17.7676 56.4093 -8.9006
382 1 11.4829 17.7676 58.9727 -8.90267
383 1 12.3889 17.7676 61.5354 -8.89937
384 1 13.2949 17.7676 64.0997 -8.89957
385 1 10.2021 19.8748 51.8138 -8.38727
386 1 11.199 19.9981 54.2856 -8.93759
387 1 12.0893 19.994 56.8378 -8.89411
388 1 12.9934 19.9902 59.3981 -8.89236
389 1 11.7898 17.7676 52.2705 -8.28454
390 1 12.7188 17.7676 54.7437 -8.74436
391 1 13.6004 17.7676 57.2695 -8.87357
392 1 13.2738 20.0016 52.3626 -8.90927
393 1 6.34638 17.7676 59.827 -8.89952
394 1 7.25213 17.7676 62.3901 -8.89982
395 1 8.15826 17.7676 64.9546 -8.89994
396 1 9.06454 17.7676 67.5192 -8.90001
397 1 9.97089 17.7676 70.0837 -8.89988
398 1 10.8773 17.7676 72.648 -8.90003
399 1 5.74133 19.988 61.9621 -8.8992
400 1 6.64745 19.9874 64.5272 -8.89997
401 1 7.55377 19.9874 67.0919 -8.90003
402 1 8.46016 19.9876 69.6564 -8.90005
403 1 9.36655 19.9879 72.2207 -8.9
404 1 6.04311 17.7676 66.6643 -8.89994
405 1 6.94944 17.7676 69.2288 -8.9
406 1 7.85585 17.7676 71.7931 -8.9
407 1 6.3451 19.9877 71.3658 -8.89996
408 1 5.74079 17.7676 73.5026 -8.90003
409 1 6.64723 17.7676 76.0663 -8.89999
410 1 7.55367 17.7676 78.6301 -8.89998
411 1 8.46011 17.7676 81.1939 -8.89998
412 1 9.36655 17.7676 83.7577 -8.89998
413 1 10.273 17.7676 86.3215 -8.89998
414 1 11.1794 17.7676 88.8853 -8.89998
415 1 12.0859 17.7676 91.4491 -8.89998
416 1 12.9923 17.7676 94.0129 -8.89998
417 1 6.04293 19.9879 78.2028 -8.89998
418 1 6.94937 19.9879 80.7666 -8.89998
419 1 7.85581 19.9879 83.3304 -8.89998
420 1 8.76225 19.9879 85.8942 -8.89998
421 1 9.66869 19.9879 88.458 -8.89998
422 1 10.5751 19.9879 91.0218 -8.89998
423 1 11.4816 19.9879 93.5856 -8.89998
424 1 12.388 19.9879 96.1494 -8.91055
425 1 7.25152 19.9879 73.9298 -8.90001
426 1 8.15796 19.9879 76.4936 -8.89999
427 1 9.0644 19.9879 79.0574 -8.89998
428 1 9.97084 19.9879 81.6212 -8.89998
429 1 10.8773 19.9879 84.185 -8.89998
430 1 11.7837 19.9879 86.7488 -8.89998
431 1 12.6902 19.9879 89.3126 -8.89998
432 1 13.5966 19.9879 91.8764 -8.89998
433 1 8.76225 17.7676 74.3571 -8.90003
434 1 9.66869 17.7676 76.9209 -8.89998
435 1 10.5751 17.7676 79.4847 -8.89998
436 1 11.4816 17.7676 82.0485 -8.89998
437 1 12.388 17.7676 84.6123 -8.89998
438 1 13.2945 17.7676 87.1761 -8.89998
439 1 10.273 19.9879 74.7844 -8.90001
440 1 11.1794 19.9879 77.3482 -8.89998
441 1 12.0859 19.9879 79.912 -8.89998
442 1 12.9923 19.9879 82.4758 -8.89998
443 1 11.7837 17.7676 75.2117 -8.90001
444 1 12.6902 17.7676 77.7755 -8.89998
445 1 13.5966 17.7676 80.3393 -8.89998
446 1 13.2945 19.9879 75.639 -8.89999
447 1 6.34508 17.7676 82.9031 -8.89998
448 1 7.25152 17.7676 85.4669 -8.89998
449 1 8.15796 17.7676 88.0307 -8.89998
450 1 9.0644 17.7676 90.5945 -8.89998
451 1 9.97084 17.7676 93.1583 -8.89998
452 1 10.8773 17.7676 95.7221 -8.89999
453 1 5.74079 19.9879 85.0396 -8.89998
454 1 6.64723 19.9879 87.6034 -8.89998
455 1 7.55367 19.9879 90.1672 -8.89998
456 1 8.46011 19.9879 92.731 -8.89998
457 1 9.36655 19.9879 95.2948 -8.89998
458 1 6.04293 17.7676 89.7399 -8.89998
459 1 6.94937 17.7676 92.3037 -8.89998
460 1 7.85581 17.7676 94.8675 -8.89998
461 1 6.34508 19.9879 94.4402 -8.89998
462 1 5.74079 17.7676 96.5767 -8.91611
463 1 6.64723 17.7676 99.1405 -7.83773
464 1 7.25152 19.9879 97.004 -8.92667
465 1 8.15796 19.9879 99.5678 -7.85861
466 1 8.76225 17.7676 97.4313 -8.93195
467 1 9.66869 17.7676 99.9951 -7.60504
468 1 10.273 19.9879 97.8586 -8.94308
469 1 11.1794 19.9879 100.422 -6.80401
470 1 11.7837 17.7676 98.2859 -8.6482
471 1 13.2945 19.9879 98.7132 -8.16469
472 1 6.70319 0.0342922 52.9316 -8.89162
473 1 7.54655 0.0090277 55.5538 -8.90391
474 1 8.46159 0.00645012 58.1129 -8.896
475 1 9.36677 0.00426818 60.6795 -8.89903
476 1 10.273 0.00375427 63.2454 -8.90022
477 1 11.1794 0.00396753 65.8103 -8.90013
478 1 12.0859 0.00431531 68.3746 -8.90004
479 1 12.9923 0.00465717 70.9386 -8.89998
480 1 6.02166 2.22254 55.0512 -8.87376
481 1 6.94387 2.21984 57.6803 -8.92128
482 1 7.85505 2.22171 60.2545 -8.90255
483 1 8.76189 2.22296 62.8202 -8.90053
484 1 9.66855 2.22387 65.3842 -8.9001
485 1 10.5751 2.22447 67.9479 -8.9
486 1 11.4816 2.22489 70.5116 -8.9
487 1 12.388 2.22537 73.0753 -8.89997
488 1 7.50137 2.23012 50.9077 -8.61231
489 1 8.17095 2.21728 53.4686 -8.409
490 1 9.06944 2.22289 55.98 -8.86355
491 1 9.97113 2.22134 58.5419 -8.89752
492 1 10.8769 2.22206 61.1099 -8.90231
493 1 11.7835 2.22327 63.6749 -8.90051
494 1 12.6901 2.22409 66.2388 -8.9001
495 1 13.5966 2.22461 68.8025 -8.9
496 1 9.05105 0.00564271 50.9188 -8.80106
497 1 9.63292 0.0024835 53.7861 -8.89385
498 1 10.5788 0.0123943 56.3838 -8.90933
499 1 11.4823 0.00623809 58.965 -8.90565
500 1 12.3882 0.00402187 61.5344 -8.90099
501 1 13.2945 0.00380346 64.1003 -8.90017
502 1 10.2119 2.29685 51.7357 -8.68202
503 1 11.1993 2.23272 54.2236 -8.92306
504 1 12.0877 2.2217 56.8216 -8.89195
505 1 12.9915 2.22098 59.3977 -8.89543
506 1 11.7558 22.1981 52.201 -8.69348
507 1 12.7076 0.0106705 54.6842 -8.71956
508 1 13.5949 0.00989369 57.242 -8.88041
509 1 13.2183 2.25135 52.2169 -8.99696
510 1 6.34434 0.004949 59.8205 -8.90404
511 1 7.25139 0.00380111 62.3897 -8.90119
512 1 8.15793 0.003869 64.9553 -8.90032
513 1 9.0644 0.0042022 67.5198 -8.90009
514 1 9.97084 0.0045634 70.084 -8.89997
515 1 10.8773 0.00505177 72.648 -8.90001
516 1 5.7404 2.22246 61.9646 -8.90015
517 1 6.64702 2.22359 64.5294 -8.90015
518 1 7.55358 2.22429 67.0933 -8.90004
519 1 8.46007 2.22476 69.657 -8.89998
520 1 9.36655 2.22537 72.2207 -8.89998
521 1 6.04294 0.00408667 66.665 -8.90007
522 1 6.94938 0.00443068 69.2293 -8.90002
523 1 7.85582 0.00478822 71.7933 -8.89999
524 1 6.34507 2.225 71.3661 -8.89999
525 1 5.74079 0.00505177 73.5026 -8.9
526 1 6.64723 0.00505177 76.0663 -8.89998
527 1 7.55367 0.00505177 78.6301 -8.89998
528 1 8.46011 0.00505177 81.1939 -8.89998
529 1 9.36655 0.00505177 83.7577 -8.89998
530 1 10.273 0.00505177 86.3215 -8.89998
531 1 11.1794 0.00505177 88.8853 -8.89998
532 1 12.0859 0.00505177 91.4491 -8.89998
533 1 12.9923 0.00505177 94.0129 -8.89998
534 1 6.04293 2.22537 78.2028 -8.89998
535 1 6.94937 2.22537 80.7666 -8.89998
536 1 7.85581 2.22537 83.3304 -8.89998
537 1 8.76225 2.22537 85.8942 -8.89998
538 1 9.66869 2.22537 88.458 -8.89998
539 1 10.5751 2.22537 91.0218 -8.89998
540 1 11.4816 2.22537 93.5856 -8.89998
541 1 12.388 2.22537 96.1494 -8.91055
542 1 7.25152 2.22537 73.9298 -8.89997
543 1 8.15796 2.22537 76.4936 -8.89998
544 1 9.0644 2.22537 79.0574 -8.89998
545 1 9.97084 2.22537 81.6212 -8.89998
546 1 10.8773 2.22537 84.185 -8.89998
547 1 11.7837 2.22537 86.7488 -8.89998
548 1 12.6902 2.22537 89.3126 -8.89998
549 1 13.5966 2.22537 91.8764 -8.89998
550 1 8.76225 0.00505177 74.3571 -8.9
551 1 9.66869 0.00505177 76.9209 -8.89998
552 1 10.5751 0.00505177 79.4847 -8.89998
553 1 11.4816 0.00505177 82.0485 -8.89998
554 1 12.388 0.00505177 84.6123 -8.89998
555 1 13.2945 0.00505177 87.1761 -8.89998
556 1 10.273 2.22537 74.7844 -8.89997
557 1 11.1794 2.22537 77.3482 -8.89998
558 1 12.0859 2.22537 79.912 -8.89998
559 1 12.9923 2.22537 82.4758 -8.89998
560 1 11.7837 0.00505177 75.2117 -8.89999
561 1 12.6902 0.00505177 77.7755 -8.89998
562 1 13.5966 0.00505177 80.3393 -8.89998
563 1 13.2945 2.22537 75.639 -8.89997
564 1 6.34508 0.00505177 82.9031 -8.89998
565 1 7.25152 0.00505177 85.4669 -8.89998
566 1 8.15796 0.00505177 88.0307 -8.89998
567 1 9.0644 0.00505177 90.5945 -8.89998
568 1 9.97084 0.00505177 93.1583 -8.89998
569 1 10.8773 0.00505177 95.7221 -8.89999
570 1 5.74079 2.22537 85.0396 -8.89998
571 1 6.64723 2.22537 87.6034 -8.89998
572 1 7.55367 2.22537 90.1672 -8.89998
573 1 8.46011 2.22537 92.731 -8.89998
574 1 9.36655 2.22537 95.2948 -8.89998
575 1 6.04293 0.00505177 89.7399 -8.89998
576 1 6.94937 0.00505177 92.3037 -8.89998
577 1 7.85581 0.00505177 94.8675 -8.89998
578 1 6.34508 2.22537 94.4402 -8.89998
579 1 5.74079 0.00505177 96.5767 -8.91611
580 1 6.64723 0.00505177 99.1405 -7.83773
581 1 7.25152 2.22537 97.004 -8.92667
582 1 8.15796 2.22537 99.5678 -7.85861
583 1 8.76225 0.00505177 97.4313 -8.93195
584 1 9.66869 0.00505177 99.9951 -7.60504
585 1 10.273 2.22537 97.8586 -8.94308
586 1 11.1794 2.22537 100.422 -6.80401
587 1 11.7837 0.00505177 98.2859 -8.6482
588 1 13.2945 2.22537 98.7132 -8.16469
589 1 14.8907 4.42087 52.9977 -8.81295
590 1 15.7002 4.43793 55.5959 -8.90483
591 1 0.302105 4.43904 58.1319 -8.89357
592 1 1.2079 4.44203 60.6901 -8.89714
593 1 2.11471 4.44376 63.2507 -8.89938
594 1 3.02134 4.44466 65.8129 -8.8998
595 1 3.92786 4.44512 68.3758 -8.8999
596 1 4.83434 4.44541 70.9391 -8.89999
597 1 14.1411 6.66598 55.1712 -8.84695
598 1 15.1025 6.66598 57.7156 -8.91829
599 1 16.0127 6.66599 60.2675 -8.89862
600 1 0.603992 6.66599 62.8256 -8.8994
601 1 1.51062 6.66599 65.3866 -8.89963
602 1 2.41713 6.66599 67.9489 -8.89984
603 1 3.32362 6.666 70.5119 -8.89998
604 1 4.23005 6.666 73.0753 -8.89991
605 1 15.6197 6.66598 50.9576 -8.52348
606 1 16.2311 6.66598 53.5589 -8.41721
607 1 0.904433 6.66598 56.0323 -8.84211
608 1 1.81001 6.66599 58.5664 -8.88665
609 1 2.71862 6.66599 61.1201 -8.89839
610 1 3.62555 6.66599 63.6791 -8.89941
611 1 4.53212 6.66599 66.2406 -8.89973
612 1 5.43861 6.66599 68.8032 -8.89986
613 1 0.86061 4.51247 50.8435 -8.61054
614 1 1.46742 4.45204 53.8211 -8.93757
615 1 2.41755 4.43616 56.4101 -8.91114
616 1 3.3218 4.43846 58.9825 -8.90608
617 1 4.22958 4.44236 61.5431 -8.90006
618 1 5.1363 4.44406 64.1047 -8.89962
619 1 1.9915 6.66598 51.9666 -7.75025
620 1 3.05537 6.66598 54.3772 -8.91095
621 1 3.92785 6.66598 56.8957 -8.86745
622 1 4.83487 6.66599 59.4227 -8.88386
623 1 3.6023 4.53723 52.2453 -8.55138
624 1 4.55157 4.44166 54.721 -8.73105
625 1 5.43378 4.43352 57.2702 -8.88293
626 1 5.16307 6.66598 52.4547 -8.91126
627 1 14.5017 4.44036 59.8342 -8.90104
628 1 15.4089 4.44325 62.3963 -8.90014
629 1 16.3157 4.44443 64.9586 -8.89994
630 1 0.906361 4.445 67.5214 -8.8999
631 1 1.81285 4.44533 70.0846 -8.90004
632 1 2.71932 4.44568 72.648 -8.89993
633 1 13.8989 6.66599 61.9735 -8.89709
634 1 14.8051 6.66599 64.5328 -8.89924
635 1 15.7116 6.66599 67.0947 -8.89976
636 1 0.302109 6.66599 69.6575 -8.89985
637 1 1.20859 6.666 72.2207 -8.89995
638 1 14.2008 4.44483 66.6671 -8.89983
639 1 15.1073 4.44522 69.2302 -8.89991
640 1 16.0137 4.4455 71.7936 -8.89996
641 1 14.503 6.666 71.3664 -8.89999
642 1 13.8987 4.44568 73.5026 -8.89993
643 1 14.8052 4.44568 76.0663 -8.89997
644 1 15.7116 4.44568 78.6301 -8.89998
645 1 0.302148 4.44568 81.1939 -8.89998
646 1 1.20859 4.44568 83.7577 -8.89998
647 1 2.11503 4.44568 86.3215 -8.89998
648 1 3.02147 4.44568 88.8853 -8.89998
649 1 3.92791 4.44568 91.4491 -8.89998
650 1 4.83435 4.44568 94.0129 -8.89998
651 1 14.2009 6.666 78.2028 -8.89998
652 1 15.1073 6.666 80.7666 -8.89998
653 1 16.0138 6.666 83.3304 -8.89998
654 1 0.604295 6.666 85.8942 -8.89998
655 1 1.51073 6.666 88.458 -8.89998
656 1 2.41717 6.666 91.0218 -8.89998
657 1 3.32361 6.666 93.5856 -8.89998
658 1 4.23005 6.666 96.1494 -8.91055
659 1 15.4095 6.666 73.9298 -8.89994
660 1 1.74934e-06 6.666 76.4936 -8.89997
661 1 0.906442 6.666 79.0574 -8.89998
662 1 1.81288 6.666 81.6212 -8.89998
663 1 2.71932 6.666 84.185 -8.89998
664 1 3.62576 6.666 86.7488 -8.89998
665 1 4.5322 6.666 89.3126 -8.89998
666 1 5.43864 6.666 91.8764 -8.89998
667 1 0.604295 4.44568 74.3571 -8.89994
668 1 1.51073 4.44568 76.9209 -8.89998
669 1 2.41717 4.44568 79.4847 -8.89998
670 1 3.32361 4.44568 82.0485 -8.89998
671 1 4.23005 4.44568 84.6123 -8.89998
672 1 5.13649 4.44568 87.1761 -8.89998
673 1 2.11503 6.666 74.7844 -8.89995
674 1 3.02147 6.666 77.3482 -8.89998
675 1 3.92791 6.666 79.912 -8.89998
676 1 4.83435 6.666 82.4758 -8.89998
677 1 3.62576 4.44568 75.2117 -8.89996
678 1 4.5322 4.44568 77.7755 -8.89998
679 1 5.43864 4.44568 80.3393 -8.89998
680 1 5.13649 6.666 75.639 -8.89996
681 1 14.503 4.44568 82.9031 -8.89998
682 1 15.4095 4.44568 85.4669 -8.89998
683 1 1.74934e-06 4.44568 88.0307 -8.89998
684 1 0.906442 4.44568 90.5945 -8.89998
685 1 1.81288 4.44568 93.1583 -8.89998
686 1 2.71932 4.44568 95.7221 -8.89999
687 1 13.8987 6.666 85.0396 -8.89998
688 1 14.8052 6.666 87.6034 -8.89998
689 1 15.7116 6.666 90.1672 -8.89998
690 1 0.302148 6.666 92.731 -8.89998
691 1 1.20859 6.666 95.2948 -8.89998
692 1 14.2009 4.44568 89.7399 -8.89998
693 1 15.1073 4.44568 92.3037 -8.89998
694 1 16.0138 4.44568 94.8675 -8.89998
695 1 14.503 6.666 94.4402 -8.89998
696 1 13.8987 4.44568 96.5767 -8.91611
697 1 14.8052 4.44568 99.1405 -7.83773
698 1 15.4095 6.666 97.004 -8.92667
699 1 1.74934e-06 6.666 99.5678 -7.85861
700 1 0.604295 4.44568 97.4313 -8.93195
701 1 1.51073 4.44568 99.9951 -7.60504
702 1 2.11503 6.666 97.8586 -8.94308
703 1 3.02147 6.666 100.422 -6.80401
704 1 3.62576 4.44568 98.2859 -8.6482
705 1 5.13649 6.666 98.7132 -8.16469
706 1 13.8697 8.77377 50.5772 -8.33926
707 1 14.8907 8.91109 52.9977 -8.81295
708 1 15.7002 8.89404 55.5959 -8.90483
709 1 0.302105 8.89293 58.1319 -8.89357
710 1 1.2079 8.88995 60.6901 -8.89714
711 1 2.11471 8.88822 63.2507 -8.89938
712 1 3.02134 8.88732 65.8129 -8.8998
713 1 3.92786 8.88687 68.3758 -8.8999
714 1 4.83434 8.88659 70.9391 -8.89999
715 1 14.1796 11.1094 55.0512 -8.87376
716 1 15.1018 11.1121 57.6803 -8.92128
717 1 16.013 11.1103 60.2545 -8.90255
718 1 0.603927 11.109 62.8202 -8.90053
719 1 1.51059 11.1081 65.3842 -8.9001
720 1 2.41712 11.1075 67.9479 -8.9
721 1 3.3236 11.1071 70.5116 -8.9
722 1 4.23005 11.1066 73.0753 -8.89997
723 1 15.6593 11.1018 50.9077 -8.61231
724 1 0.0129879 11.1147 53.4686 -8.409
725 1 0.911483 11.1091 55.98 -8.86355
726 1 1.81317 11.1106 58.5419 -8.89752
727 1 2.71891 11.1099 61.1099 -8.90231
728 1 3.62557 11.1087 63.6749 -8.90051
729 1 4.53211 11.1079 66.2388 -8.9001
730 1 5.43861 11.1074 68.8025 -8.9
731 1 0.860607 8.81948 50.8435 -8.61053
732 1 1.46742 8.87992 53.8211 -8.93758
733 1 2.41755 8.8958 56.4101 -8.91114
734 1 3.3218 8.89351 58.9826 -8.90608
735 1 4.22958 8.88962 61.5431 -8.90006
736 1 5.1363 8.88792 64.1047 -8.89962
737 1 2.05391 11.0351 51.7357 -8.68201
738 1 3.0413 11.0992 54.2236 -8.92306
739 1 3.92978 11.1103 56.8216 -8.89195
740 1 4.83357 11.111 59.3977 -8.89543
741 1 3.6023 8.79473 52.2453 -8.55137
742 1 4.55157 8.8903 54.721 -8.73105
743 1 5.43378 8.89845 57.2702 -8.88293
744 1 5.06032 11.0806 52.2169 -8.99696
745 1 14.5017 8.89162 59.8342 -8.90104
746 1 15.4089 8.88873 62.3963 -8.90014
747 1 16.3157 8.88755 64.9586 -8.89994
748 1 0.906361 8.88699 67.5214 -8.8999
749 1 1.81285 8.88666 70.0846 -8.90004
750 1 2.71932 8.88631 72.648 -8.89993
751 1 13.8984 11.1095 61.9646 -8.90015
752 1 14.805 11.1084 64.5294 -8.90015
753 1 15.7115 11.1077 67.0933 -8.90004
754 1 0.302116 11.1072 69.657 -8.89998
755 1 1.20859 11.1066 72.2207 -8.89998
756 1 14.2008 8.88715 66.6671 -8.89983
757 1 15.1073 8.88677 69.2302 -8.89991
758 1 16.0137 8.8865 71.7936 -8.89996
759 1 14.503 11.107 71.3661 -8.89999
760 1 13.8987 8.88631 73.5026 -8.89993
761 1 14.8052 8.88631 76.0663 -8.89997
762 1 15.7116 8.88631 78.6301 -8.89998
763 1 0.302148 8.88631 81.1939 -8.89998
764 1 1.20859 8.88631 83.7577 -8.89998
765 1 2.11503 8.88631 86.3215 -8.89998
766 1 3.02147 8.88631 88.8853 -8.89998
767 1 3.92791 8.88631 91.4491 -8.89998
768 1 4.83435 8.88631 94.0129 -8.89998
769 1 14.2009 11.1066 78.2028 -8.89998
770 1 15.1073 11.1066 80.7666 -8.89998
771 1 16.0138 11.1066 83.3304 -8.89998
772 1 0.604295 11.1066 85.8942 -8.89998