ITEM: TIMESTEP
0
ITEM: NUMBER OF ATOMS
3298
ITEM: BOX BOUNDS pp pp ss
0.0000000000000000e+00 1.6315918607298830e+01
0.0000000000000000e+00 3.1084414100960640e+01
-1.0024273952340049e-02 1.0043123368960350e+02
ITEM: ATOMS id type x y z c_eng
1 1 6.23732 0.0274009 51.2002 -8.58757
2 1 8.07105 31.0313 53.0511 -8.5711
3 1 8.76837 0.00714356 55.6021 -8.49858
4 1 9.67087 0.00177953 58.1162 -8.87081
5 1 10.5749 0.00310289 60.6786 -8.89662
6 1 11.4809 0.00377331 63.2455 -8.9016
7 1 12.3878 0.00422642 65.81 -8.90025
8 1 13.2944 0.0045316 68.3738 -8.90003
9 1 14.2009 0.00489236 70.9376 -8.89999
10 1 7.30905 2.2015 55.1348 -8.86467
11 1 8.15083 2.21824 57.713 -8.90555
12 1 9.06451 2.22176 60.2609 -8.89337
13 1 9.96998 2.22386 62.8217 -8.89761
14 1 10.8769 2.22468 65.3841 -8.89949
15 1 11.7836 2.22499 67.9472 -8.8999
16 1 12.6901 2.22528 70.5105 -8.9
17 1 13.5966 2.22571 73.074 -8.89994
18 1 8.05767 2.17396 50.7741 -8.53755
19 1 9.44033 2.21833 53.172 -8.53444
20 1 10.2368 2.22193 55.9722 -8.9815
21 1 11.1813 2.22033 58.5456 -8.89844
22 1 12.0832 2.22262 61.1147 -8.9028
23 1 12.9914 2.22439 63.6762 -8.89959
24 1 13.8984 2.22482 66.2386 -8.89963
25 1 14.8051 2.22506 68.8017 -8.89989
26 1 9.6579 0.0300404 50.8388 -8.74187
27 1 10.8192 0.0748213 53.8995 -8.68067
28 1 11.8108 0.00676612 56.3797 -8.93018
29 1 12.6938 0.00146322 58.9655 -8.89581
30 1 13.596 0.00268307 61.5359 -8.89592
31 1 14.5027 0.00370777 64.1007 -8.90005
32 1 12.1254 5.03995 51.9492 -7.95455
33 1 12.3952 2.27993 54.4223 -8.31158
34 1 13.3219 2.2229 56.8907 -8.7034
35 1 14.2002 2.22059 59.4163 -8.87477
36 1 12.1181 1.61522 51.8942 -7.95118
37 1 13.8364 0.0222182 54.3696 -8.97699
38 1 14.7878 0.000810732 57.1921 -8.87282
39 1 14.5177 2.2864 52.718 -8.19762
40 1 7.54796 0.0026481 59.815 -8.91783
41 1 8.45927 0.00364021 62.3891 -8.90243
42 1 9.36615 0.00410967 64.955 -8.90038
43 1 10.2729 0.00443566 67.5192 -8.90005
44 1 11.1794 0.00479528 70.083 -8.90001
45 1 12.0859 0.00539845 72.6467 -8.89997
46 1 6.94906 2.22206 61.9651 -8.9019
47 1 7.85553 2.2241 64.5293 -8.90028
48 1 8.76211 2.22478 67.0927 -8.90003
49 1 9.66863 2.22514 69.656 -8.89993
50 1 10.5751 2.22571 72.2194 -8.89997
51 1 7.25141 0.00423951 66.6643 -8.90012
52 1 8.15793 0.00461162 69.2283 -8.90003
53 1 9.0644 0.00504935 71.7921 -8.89999
54 1 7.55368 2.22533 71.365 -8.89999
55 1 6.94939 0.00539845 73.5013 -8.89998
56 1 7.85583 0.00539845 76.0651 -8.89998
57 1 8.76227 0.00539845 78.6289 -8.89998
58 1 9.66871 0.00539845 81.1927 -8.89998
59 1 10.5751 0.00539845 83.7565 -8.89998
60 1 11.4816 0.00539845 86.3203 -8.89998
61 1 12.388 0.00539845 88.8841 -8.89998
62 1 13.2945 0.00539845 91.4479 -8.89998
63 1 14.2009 0.00539845 94.0117 -8.89998
64 1 7.25154 2.22571 78.2016 -8.89998
65 1 8.15798 2.22571 80.7654 -8.89998
66 1 9.06442 2.22571 83.3292 -8.89998
67 1 9.97086 2.22571 85.893 -8.89998
68 1 10.8773 2.22571 88.4568 -8.89998
69 1 11.7837 2.22571 91.0206 -8.89998
70 1 12.6902 2.22571 93.5844 -8.89998
71 1 13.5966 2.22571 96.1482 -8.91055
72 1 8.46012 2.22571 73.9286 -8.89996
73 1 9.36656 2.22571 76.4924 -8.89997
74 1 10.273 2.22571 79.0562 -8.89998
75 1 11.1794 2.22571 81.62 -8.89998
76 1 12.0859 2.22571 84.1838 -8.89998
77 1 12.9923 2.22571 86.7476 -8.89998
78 1 13.8988 2.22571 89.3114 -8.89998
79 1 14.8052 2.22571 91.8752 -8.89998
80 1 9.97086 0.00539845 74.3559 -8.89997
81 1 10.8773 0.00539845 76.9197 -8.89998
82 1 11.7837 0.00539845 79.4835 -8.89998
83 1 12.6902 0.00539845 82.0473 -8.89998
84 1 13.5966 0.00539845 84.6111 -8.89998
85 1 14.5031 0.00539845 87.1749 -8.89998
86 1 11.4816 2.22571 74.7832 -8.89995
87 1 12.388 2.22571 77.347 -8.89998
88 1 13.2945 2.22571 79.9108 -8.89998
89 1 14.2009 2.22571 82.4746 -8.89998
90 1 12.9923 0.00539845 75.2105 -8.89997
91 1 13.8988 0.00539845 77.7743 -8.89998
92 1 14.8052 0.00539845 80.3381 -8.89998
93 1 14.5031 2.22571 75.6378 -8.89996
94 1 7.55368 0.00539845 82.9019 -8.89998
95 1 8.46012 0.00539845 85.4657 -8.89998
96 1 9.36656 0.00539845 88.0295 -8.89998
97 1 10.273 0.00539845 90.5933 -8.89998
98 1 11.1794 0.00539845 93.1571 -8.89998
99 1 12.0859 0.00539845 95.7209 -8.89999
100 1 6.94939 2.22571 85.0384 -8.89998
101 1 7.85583 2.22571 87.6022 -8.89998
102 1 8.76227 2.22571 90.166 -8.89998
103 1 9.66871 2.22571 92.7298 -8.89998
104 1 10.5751 2.22571 95.2936 -8.89998
105 1 7.25154 0.00539845 89.7387 -8.89998
106 1 8.15798 0.00539845 92.3025 -8.89998
107 1 9.06442 0.00539845 94.8663 -8.89998
108 1 7.55368 2.22571 94.439 -8.89998
109 1 6.94939 0.00539845 96.5755 -8.91611
110 1 7.85583 0.00539845 99.1393 -7.83773
111 1 8.46012 2.22571 97.0028 -8.92667
112 1 9.36656 2.22571 99.5666 -7.85861
113 1 9.97086 0.00539845 97.4301 -8.93195
114 1 10.8773 0.00539845 99.9939 -7.60504
115 1 11.4816 2.22571 97.8574 -8.94308
116 1 12.388 2.22571 100.421 -6.80401
117 1 12.9923 0.00539845 98.2847 -8.6482
118 1 14.5031 2.22571 98.712 -8.16469
119 1 6.32779 4.45706 51.1087 -8.22051
120 1 8.07998 4.49238 53.0692 -8.53985
121 1 8.72127 4.4281 55.6492 -8.53765
122 1 9.66876 4.44851 58.1435 -8.86224
123 1 10.572 4.44815 60.691 -8.88908
124 1 11.4804 4.44672 63.25 -8.89921
125 1 12.3876 4.44599 65.8119 -8.89983
126 1 13.2943 4.44579 68.3747 -8.89989
127 1 14.2008 4.44585 70.9379 -8.90001
128 1 7.34967 6.68924 55.125 -8.83021
129 1 8.15323 6.67246 57.718 -8.90096
130 1 9.06601 6.67097 60.2595 -8.89424
131 1 9.97025 6.66836 62.8216 -8.89823
132 1 10.8768 6.66702 65.3844 -8.89978
133 1 11.7835 6.66654 67.9475 -8.9
134 1 12.6901 6.6664 70.5107 -8.90004
135 1 13.5966 6.66634 73.074 -8.89994
136 1 8.0824 6.72904 50.7867 -8.57983
137 1 9.66367 6.64308 52.9908 -8.75018
138 1 10.2314 6.66903 55.929 -8.9019
139 1 11.1795 6.67864 58.5292 -8.90926
140 1 12.0832 6.67203 61.1095 -8.90536
141 1 12.9912 6.66811 63.6751 -8.90078
142 1 13.8982 6.66686 66.2386 -8.89996
143 1 14.805 6.66648 68.8019 -8.89997
144 1 9.43254 4.44747 50.6564 -8.54791
145 1 10.7821 4.35481 54.0026 -8.07105
146 1 11.8007 4.45559 56.4533 -8.94924
147 1 12.6777 4.45177 58.9992 -8.88168
148 1 13.5939 4.44858 61.5465 -8.89045
149 1 14.5022 4.44656 64.1044 -8.89856
150 1 12.148 7.68638 51.9181 -8.37915
151 1 12.355 6.62536 54.3447 -8.68613
152 1 13.3048 6.67799 56.8282 -8.73077
153 1 14.1925 6.67746 59.3929 -8.887
154 1 14.5287 4.39076 51.115 -8.26114
155 1 13.9006 4.46609 54.544 -8.89849
156 1 14.7362 4.45774 57.2871 -8.83446
157 1 14.4242 6.57946 52.6602 -8.57132
158 1 7.55278 4.4458 59.8386 -8.91905
159 1 8.45989 4.44607 62.3969 -8.89959
160 1 9.36635 4.44586 64.9581 -8.8997
161 1 10.2728 4.44575 67.5205 -8.8998
162 1 11.1794 4.44581 70.0835 -8.90007
163 1 12.0859 4.44603 72.6467 -8.89993
164 1 6.94909 6.6691 61.9655 -8.90224
165 1 7.85543 6.66718 64.5298 -8.9005
166 1 8.76201 6.6666 67.0931 -8.9001
167 1 9.66856 6.66642 69.6563 -8.89993
168 1 10.5751 6.66634 72.2194 -8.89998
169 1 7.25158 4.44564 66.6666 -8.89945
170 1 8.15793 4.44573 69.2292 -8.89987
171 1 9.06438 4.44589 71.7924 -8.89997
172 1 7.55364 6.66637 71.3652 -8.90002
173 1 6.94939 4.44603 73.5013 -8.89992
174 1 7.85583 4.44603 76.0651 -8.89997
175 1 8.76227 4.44603 78.6289 -8.89998
176 1 9.66871 4.44603 81.1927 -8.89998
177 1 10.5751 4.44603 83.7565 -8.89998
178 1 11.4816 4.44603 86.3203 -8.89998
179 1 12.388 4.44603 88.8841 -8.89998
180 1 13.2945 4.44603 91.4479 -8.89998
181 1 14.2009 4.44603 94.0117 -8.89998
182 1 7.25154 6.66634 78.2016 -8.89998
183 1 8.15798 6.66634 80.7654 -8.89998
184 1 9.06442 6.66634 83.3292 -8.89998
185 1 9.97086 6.66634 85.893 -8.89998
186 1 10.8773 6.66634 88.4568 -8.89998
187 1 11.7837 6.66634 91.0206 -8.89998
188 1 12.6902 6.66634 93.5844 -8.89998
189 1 13.5966 6.66634 96.1482 -8.91055
190 1 8.46012 6.66634 73.9286 -8.89997
191 1 9.36656 6.66634 76.4924 -8.89996
192 1 10.273 6.66634 79.0562 -8.89998
193 1 11.1794 6.66634 81.62 -8.89998
194 1 12.0859 6.66634 84.1838 -8.89998
195 1 12.9923 6.66634 86.7476 -8.89998
196 1 13.8988 6.66634 89.3114 -8.89998
197 1 14.8052 6.66634 91.8752 -8.89998
198 1 9.97086 4.44603 74.3559 -8.8999
199 1 10.8773 4.44603 76.9197 -8.89998
200 1 11.7837 4.44603 79.4835 -8.89998
201 1 12.6902 4.44603 82.0473 -8.89998
202 1 13.5966 4.44603 84.6111 -8.89998
203 1 14.5031 4.44603 87.1749 -8.89998
204 1 11.4816 6.66634 74.7832 -8.89993
205 1 12.388 6.66634 77.347 -8.89998
206 1 13.2945 6.66634 79.9108 -8.89998
207 1 14.2009 6.66634 82.4746 -8.89998
208 1 12.9923 4.44603 75.2105 -8.89994
209 1 13.8988 4.44603 77.7743 -8.89998
210 1 14.8052 4.44603 80.3381 -8.89998
211 1 14.5031 6.66634 75.6378 -8.89994
212 1 7.55368 4.44603 82.9019 -8.89998
213 1 8.46012 4.44603 85.4657 -8.89998
214 1 9.36656 4.44603 88.0295 -8.89998
215 1 10.273 4.44603 90.5933 -8.89998
216 1 11.1794 4.44603 93.1571 -8.89998
217 1 12.0859 4.44603 95.7209 -8.89999
218 1 6.94939 6.66634 85.0384 -8.89998
219 1 7.85583 6.66634 87.6022 -8.89998
220 1 8.76227 6.66634 90.166 -8.89998
221 1 9.66871 6.66634 92.7298 -8.89998
222 1 10.5751 6.66634 95.2936 -8.89998
223 1 7.25154 4.44603 89.7387 -8.89998
224 1 8.15798 4.44603 92.3025 -8.89998
225 1 9.06442 4.44603 94.8663 -8.89998
226 1 7.55368 6.66634 94.439 -8.89998
227 1 6.94939 4.44603 96.5755 -8.91611
228 1 7.85583 4.44603 99.1393 -7.83773
229 1 8.46012 6.66634 97.0028 -8.92667
230 1 9.36656 6.66634 99.5666 -7.85861
231 1 9.97086 4.44603 97.4301 -8.93195
232 1 10.8773 4.44603 99.9939 -7.60504
233 1 11.4816 6.66634 97.8574 -8.94308
234 1 12.388 6.66634 100.421 -6.80401
235 1 12.9923 4.44603 98.2847 -8.6482
236 1 14.5031 6.66634 98.712 -8.16469
237 1 8.10498 8.88754 53.0425 -8.62809
238 1 8.77765 8.8963 55.603 -8.38798
239 1 9.6742 8.889 58.1148 -8.86345
240 1 10.575 8.8876 60.6777 -8.89812
241 1 11.4808 8.88733 63.246 -8.90258
242 1 12.3876 8.88714 65.8108 -8.90055
243 1 13.2942 8.88701 68.3744 -8.90011
244 1 14.2008 8.88686 70.9378 -8.90005
245 1 7.30499 11.0778 55.0737 -8.85325
246 1 8.13993 11.0993 57.7103 -8.914
247 1 9.06328 11.1027 60.2586 -8.89424
248 1 9.97022 11.1059 62.8205 -8.89791
249 1 10.877 11.1072 65.3837 -8.89987
250 1 11.7836 11.1074 67.9471 -8.89998
251 1 12.6901 11.1073 70.5105 -8.90002
252 1 13.5966 11.107 73.074 -8.89996
253 1 8.06156 11.044 50.7774 -8.53467
254 1 9.6287 11.1625 52.9848 -8.6255
255 1 10.2308 11.1151 55.9451 -8.91935
256 1 11.1815 11.0989 58.5359 -8.90938
257 1 12.0863 11.1028 61.1101 -8.90723
258 1 12.9923 11.1063 63.6746 -8.90034
259 1 13.8986 11.1073 66.2382 -8.89994
260 1 14.8051 11.1074 68.8016 -8.89995
261 1 9.65851 8.89147 50.7717 -8.81081
262 1 10.8251 8.92807 53.8478 -8.6993
263 1 11.8015 8.89347 56.3497 -8.92332
264 1 12.6915 8.88812 58.9551 -8.89355
265 1 13.5953 8.88735 61.5337 -8.89615
266 1 14.5023 8.88722 64.1008 -8.90038
267 1 12.0185 13.2212 52.0362 -7.9895
268 1 12.3686 11.185 54.3774 -8.58788
269 1 13.3225 11.1059 56.8503 -8.72225
270 1 14.2024 11.0987 59.3931 -8.87568
271 1 12.1296 10.3004 51.9083 -8.23493
272 1 13.8249 8.89173 54.3483 -9.00772
273 1 14.7853 8.88497 57.1854 -8.87025
274 1 14.4574 11.2066 52.6906 -8.38228
275 1 7.5476 8.88753 59.8169 -8.92364
276 1 8.459 8.88721 62.391 -8.90261
277 1 9.36592 8.88718 64.9563 -8.90058
278 1 10.2727 8.88706 67.52 -8.90009
279 1 11.1793 8.88691 70.0833 -8.90013
280 1 12.0859 8.88666 72.6467 -8.89996
281 1 6.94672 11.1043 61.9627 -8.90312
282 1 7.855 11.1068 64.5286 -8.90077
283 1 8.76194 11.1074 67.0925 -8.90017
284 1 9.66857 11.1074 69.656 -8.89998
285 1 10.5751 11.107 72.2194 -8.89998
286 1 7.25114 8.88709 66.6654 -8.90014
287 1 8.15779 8.88697 69.2289 -8.90004
288 1 9.06435 8.8868 71.7924 -8.9
289 1 7.55363 11.1073 71.365 -8.90001
290 1 6.94939 8.88666 73.5013 -8.89996
291 1 7.85583 8.88666 76.0651 -8.89996
292 1 8.76227 8.88666 78.6289 -8.89998
293 1 9.66871 8.88666 81.1927 -8.89998
294 1 10.5751 8.88666 83.7565 -8.89998
295 1 11.4816 8.88666 86.3203 -8.89998
296 1 12.388 8.88666 88.8841 -8.89998
297 1 13.2945 8.88666 91.4479 -8.89998
298 1 14.2009 8.88666 94.0117 -8.89998
299 1 7.25154 11.107 78.2016 -8.89998
300 1 8.15798 11.107 80.7654 -8.89998
301 1 9.06442 11.107 83.3292 -8.89998
302 1 9.97086 11.107 85.893 -8.89998
303 1 10.8773 11.107 88.4568 -8.89998
304 1 11.7837 11.107 91.0206 -8.89998
305 1 12.6902 11.107 93.5844 -8.89998
306 1 13.5966 11.107 96.1482 -8.91055
307 1 8.46012 11.107 73.9286 -8.89998
308 1 9.36656 11.107 76.4924 -8.89997
309 1 10.273 11.107 79.0562 -8.89998
310 1 11.1794 11.107 81.62 -8.89998
311 1 12.0859 11.107 84.1838 -8.89998
312 1 12.9923 11.107 86.7476 -8.89998
313 1 13.8988 11.107 89.3114 -8.89998
314 1 14.8052 11.107 91.8752 -8.89998
315 1 9.97086 8.88666 74.3559 -8.8999
316 1 10.8773 8.88666 76.9197 -8.89998
317 1 11.7837 8.88666 79.4835 -8.89998
318 1 12.6902 8.88666 82.0473 -8.89998
319 1 13.5966 8.88666 84.6111 -8.89998
320 1 14.5031 8.88666 87.1749 -8.89998
321 1 11.4816 11.107 74.7832 -8.89995
322 1 12.388 11.107 77.347 -8.89998
323 1 13.2945 11.107 79.9108 -8.89998
324 1 14.2009 11.107 82.4746 -8.89998
325 1 12.9923 8.88666 75.2105 -8.89994
326 1 13.8988 8.88666 77.7743 -8.89998
327 1 14.8052 8.88666 80.3381 -8.89998
328 1 14.5031 11.107 75.6378 -8.89996
329 1 7.55368 8.88666 82.9019 -8.89998
330 1 8.46012 8.88666 85.4657 -8.89998
331 1 9.36656 8.88666 88.0295 -8.89998
332 1 10.273 8.88666 90.5933 -8.89998
333 1 11.1794 8.88666 93.1571 -8.89998
334 1 12.0859 8.88666 95.7209 -8.89999
335 1 6.94939 11.107 85.0384 -8.89998
336 1 7.85583 11.107 87.6022 -8.89998
337 1 8.76227 11.107 90.166 -8.89998
338 1 9.66871 11.107 92.7298 -8.89998
339 1 10.5751 11.107 95.2936 -8.89998
340 1 7.25154 8.88666 89.7387 -8.89998
341 1 8.15798 8.88666 92.3025 -8.89998
342 1 9.06442 8.88666 94.8663 -8.89998
343 1 7.55368 11.107 94.439 -8.89998
344 1 6.94939 8.88666 96.5755 -8.91611
345 1 7.85583 8.88666 99.1393 -7.83773
346 1 8.46012 11.107 97.0028 -8.92667
347 1 9.36656 11.107 99.5666 -7.85861
348 1 9.97086 8.88666 97.4301 -8.93195
349 1 10.8773 8.88666 99.9939 -7.60504
350 1 11.4816 11.107 97.8574 -8.94308
351 1 12.388 11.107 100.421 -6.80401
352 1 12.9923 8.88666 98.2847 -8.6482
353 1 14.5031 11.107 98.712 -8.16469
354 1 6.32717 13.4349 51.1227 -8.3735
355 1 8.05713 13.311 53.0909 -8.52845
356 1 8.67613 13.3025 55.6813 -8.40784
357 1 9.66566 13.3229 58.1553 -8.84038
358 1 10.5752 13.3256 60.6911 -8.88867
359 1 11.482 13.3273 63.2492 -8.89901
360 1 12.3881 13.3279 65.811 -8.8997
361 1 13.2945 13.328 68.3741 -8.89988
362 1 14.2009 13.3277 70.9376 -8.89997
363 1 7.34138 15.5551 55.153 -8.82564
364 1 8.14791 15.5471 57.7299 -8.90448
365 1 9.06617 15.5501 60.2645 -8.89576
366 1 9.9716 15.5492 62.8216 -8.89718
367 1 10.8776 15.5488 65.3831 -8.8994
368 1 11.7839 15.5485 67.9464 -8.89984
369 1 12.6902 15.5481 70.5101 -8.89994
370 1 13.5966 15.5476 73.074 -8.89997
371 1 8.0838 15.6134 50.7733 -8.52731
372 1 9.59457 15.487 53.0027 -8.58455
373 1 10.2255 15.5366 55.9584 -8.94788
374 1 11.1814 15.5506 58.5414 -8.91015
375 1 12.0867 15.5509 61.1115 -8.90728
376 1 12.9929 15.5494 63.674 -8.89991
377 1 13.899 15.5488 66.2372 -8.89968
378 1 14.8053 15.5484 68.8009 -8.89989
379 1 9.40368 13.3238 50.6454 -8.63204
380 1 10.7501 13.3346 54.0854 -7.77132
381 1 11.8217 13.3204 56.4953 -8.91318
382 1 12.7029 13.3241 59.012 -8.88091
383 1 13.5998 13.3267 61.5467 -8.88526
384 1 14.5038 13.3277 64.1034 -8.89788
385 1 12.1379 16.2391 51.8806 -8.13164
386 1 12.3615 15.4478 54.3825 -8.52495
387 1 13.3122 15.542 56.8572 -8.72916
388 1 14.2005 15.553 59.3964 -8.87782
389 1 14.4899 13.338 51.1108 -8.1739
390 1 13.9271 13.3177 54.5646 -8.90741
391 1 14.795 13.3207 57.2527 -8.89665
392 1 14.4851 15.4396 52.7169 -8.37349
393 1 7.54583 13.3228 59.8376 -8.91523
394 1 8.45903 13.3265 62.3954 -8.89983
395 1 9.36639 13.3277 64.9568 -8.89976
396 1 10.273 13.328 67.5197 -8.89984
397 1 11.1794 13.3278 70.0831 -8.89998
398 1 12.0859 13.3273 72.6467 -8.89995
399 1 6.94918 15.5498 61.9682 -8.89914
400 1 7.85583 15.5489 64.5289 -8.89978
401 1 8.76232 15.5486 67.0919 -8.89989
402 1 9.66874 15.5483 69.6556 -8.89995
403 1 10.5751 15.5476 72.2194 -8.89997
404 1 7.25135 13.3279 66.6652 -8.89979
405 1 8.15791 13.3279 69.2286 -8.89994
406 1 9.06439 13.3276 71.7922 -8.89997
407 1 7.55368 15.548 71.3647 -8.89996
408 1 6.94939 13.3273 73.5013 -8.89996
409 1 7.85583 13.3273 76.0651 -8.89998
410 1 8.76227 13.3273 78.6289 -8.89998
411 1 9.66871 13.3273 81.1927 -8.89998
412 1 10.5751 13.3273 83.7565 -8.89998
413 1 11.4816 13.3273 86.3203 -8.89998
414 1 12.388 13.3273 88.8841 -8.89998
415 1 13.2945 13.3273 91.4479 -8.89998
416 1 14.2009 13.3273 94.0117 -8.89998
417 1 7.25154 15.5476 78.2016 -8.89998
418 1 8.15798 15.5476 80.7654 -8.89998
419 1 9.06442 15.5476 83.3292 -8.89998
420 1 9.97086 15.5476 85.893 -8.89998
421 1 10.8773 15.5476 88.4568 -8.89998
422 1 11.7837 15.5476 91.0206 -8.89998
423 1 12.6902 15.5476 93.5844 -8.89998
424 1 13.5966 15.5476 96.1482 -8.91055
425 1 8.46012 15.5476 73.9286 -8.89998
426 1 9.36656 15.5476 76.4924 -8.89998
427 1 10.273 15.5476 79.0562 -8.89998
428 1 11.1794 15.5476 81.62 -8.89998
429 1 12.0859 15.5476 84.1838 -8.89998
430 1 12.9923 15.5476 86.7476 -8.89998
431 1 13.8988 15.5476 89.3114 -8.89998
432 1 14.8052 15.5476 91.8752 -8.89998
433 1 9.97086 13.3273 74.3559 -8.89996
434 1 10.8773 13.3273 76.9197 -8.89998
435 1 11.7837 13.3273 79.4835 -8.89998
436 1 12.6902 13.3273 82.0473 -8.89998
437 1 13.5966 13.3273 84.6111 -8.89998
438 1 14.5031 13.3273 87.1749 -8.89998
439 1 11.4816 15.5476 74.7832 -8.89999
440 1 12.388 15.5476 77.347 -8.89998
441 1 13.2945 15.5476 79.9108 -8.89998
442 1 14.2009 15.5476 82.4746 -8.89998
443 1 12.9923 13.3273 75.2105 -8.89997
444 1 13.8988 13.3273 77.7743 -8.89998
445 1 14.8052 13.3273 80.3381 -8.89998
446 1 14.5031 15.5476 75.6378 -8.89999
447 1 7.55368 13.3273 82.9019 -8.89998
448 1 8.46012 13.3273 85.4657 -8.89998
449 1 9.36656 13.3273 88.0295 -8.89998
450 1 10.273 13.3273 90.5933 -8.89998
451 1 11.1794 13.3273 93.1571 -8.89998
452 1 12.0859 13.3273 95.7209 -8.89999
453 1 6.94939 15.5476 85.0384 -8.89998
454 1 7.85583 15.5476 87.6022 -8.89998
455 1 8.76227 15.5476 90.166 -8.89998
456 1 9.66871 15.5476 92.7298 -8.89998
457 1 10.5751 15.5476 95.2936 -8.89998
458 1 7.25154 13.3273 89.7387 -8.89998
459 1 8.15798 13.3273 92.3025 -8.89998
460 1 9.06442 13.3273 94.8663 -8.89998
461 1 7.55368 15.5476 94.439 -8.89998
462 1 6.94939 13.3273 96.5755 -8.91611
463 1 7.85583 13.3273 99.1393 -7.83773
464 1 8.46012 15.5476 97.0028 -8.92667
465 1 9.36656 15.5476 99.5666 -7.85861
466 1 9.97086 13.3273 97.4301 -8.93195
467 1 10.8773 13.3273 99.9939 -7.60504
468 1 11.4816 15.5476 97.8574 -8.94308
469 1 12.388 15.5476 100.421 -6.80401
470 1 12.9923 13.3273 98.2847 -8.6482
471 1 14.5031 15.5476 98.712 -8.16469
472 1 6.29946 17.6679 51.149 -8.38224
473 1 8.10607 17.7833 53.0427 -8.61943
474 1 8.77125 17.7746 55.6055 -8.46579
475 1 9.67409 17.769 58.1166 -8.87049
476 1 10.5764 17.7696 60.6765 -8.89721
477 1 11.4821 17.7694 63.2431 -8.90173
478 1 12.3883 17.769 65.8084 -8.9004
479 1 13.2946 17.7687 68.3729 -8.90007
480 1 14.201 17.7684 70.9372 -8.89996
481 1 7.30399 19.9908 55.0593 -8.89704
482 1 8.15005 19.989 57.6871 -8.90228
483 1 9.06592 19.9869 60.248 -8.89643
484 1 9.97147 19.9879 62.8144 -8.89907
485 1 10.8777 19.9884 65.3802 -8.90014
486 1 11.784 19.9886 67.9451 -8.90008
487 1 12.6903 19.9885 70.5097 -8.89995
488 1 13.5966 19.9882 73.074 -8.90003
489 1 8.1042 19.9898 50.798 -8.61288
490 1 9.65642 19.9859 53.0571 -8.80272
491 1 10.2346 19.9908 55.9231 -8.89523
492 1 11.1822 19.9807 58.5199 -8.90974
493 1 12.0868 19.986 61.1 -8.90598
494 1 12.9929 19.9879 63.669 -8.90079
495 1 13.8991 19.9885 66.2349 -8.90008
496 1 14.8053 19.9886 68.7999 -8.90004
497 1 9.66424 17.7666 50.7949 -8.80829
498 1 10.8136 17.6961 53.8755 -8.68435
499 1 11.7984 17.7574 56.3632 -8.92564
500 1 12.6897 17.7687 58.9582 -8.89116
501 1 13.5966 17.7697 61.5306 -8.89412
502 1 14.5032 17.7693 64.0976 -8.8998
503 1 12.1362 21.4809 51.958 -8.14476
504 1 12.3559 19.9961 54.3359 -8.6985
505 1 13.3082 19.9848 56.8201 -8.71895
506 1 14.199 19.9833 59.3771 -8.88258
507 1 12.1389 18.8619 51.9198 -8.38686
508 1 13.8083 17.7394 54.3605 -9.00317
509 1 14.7708 17.7702 57.1978 -8.87783
510 1 14.4098 20.0244 52.6392 -8.60645
511 1 7.55144 17.7731 59.8196 -8.91976
512 1 8.46053 17.7701 62.3892 -8.90228
513 1 9.36684 17.7692 64.954 -8.90034
514 1 10.2732 17.7688 67.5183 -8.90005
515 1 11.1795 17.7684 70.0825 -8.89991
516 1 12.0859 17.7679 72.6467 -8.9
517 1 6.94911 19.9889 61.9558 -8.90426
518 1 7.85604 19.9887 64.5247 -8.90121
519 1 8.76247 19.9886 67.0902 -8.90029
520 1 9.66884 19.9885 69.6549 -8.90012
521 1 10.5751 19.9882 72.2194 -8.9
522 1 7.25163 17.769 66.6636 -8.90001
523 1 8.15804 17.7686 69.2278 -8.90001
524 1 9.06445 17.7682 71.7919 -8.89998
525 1 7.55372 19.9885 71.3644 -8.89995
526 1 6.94939 17.7679 73.5013 -8.90001
527 1 7.85583 17.7679 76.0651 -8.89999
528 1 8.76227 17.7679 78.6289 -8.89998
529 1 9.66871 17.7679 81.1927 -8.89998
530 1 10.5751 17.7679 83.7565 -8.89998
531 1 11.4816 17.7679 86.3203 -8.89998
532 1 12.388 17.7679 88.8841 -8.89998
533 1 13.2945 17.7679 91.4479 -8.89998
534 1 14.2009 17.7679 94.0117 -8.89998
535 1 7.25154 19.9882 78.2016 -8.89998
536 1 8.15798 19.9882 80.7654 -8.89998
537 1 9.06442 19.9882 83.3292 -8.89998
538 1 9.97086 19.9882 85.893 -8.89998
539 1 10.8773 19.9882 88.4568 -8.89998
540 1 11.7837 19.9882 91.0206 -8.89998
541 1 12.6902 19.9882 93.5844 -8.89998
542 1 13.5966 19.9882 96.1482 -8.91055
543 1 8.46012 19.9882 73.9286 -8.9
544 1 9.36656 19.9882 76.4924 -8.9
545 1 10.273 19.9882 79.0562 -8.89998
546 1 11.1794 19.9882 81.62 -8.89998
547 1 12.0859 19.9882 84.1838 -8.89998
548 1 12.9923 19.9882 86.7476 -8.89998
549 1 13.8988 19.9882 89.3114 -8.89998
550 1 14.8052 19.9882 91.8752 -8.89998
551 1 9.97086 17.7679 74.3559 -8.90003
552 1 10.8773 17.7679 76.9197 -8.89998
553 1 11.7837 17.7679 79.4835 -8.89998
554 1 12.6902 17.7679 82.0473 -8.89998
555 1 13.5966 17.7679 84.6111 -8.89998
556 1 14.5031 17.7679 87.1749 -8.89998
557 1 11.4816 19.9882 74.7832 -8.90003
558 1 12.388 19.9882 77.347 -8.89998
559 1 13.2945 19.9882 79.9108 -8.89998
560 1 14.2009 19.9882 82.4746 -8.89998
561 1 12.9923 17.7679 75.2105 -8.90001
562 1 13.8988 17.7679 77.7743 -8.89998
563 1 14.8052 17.7679 80.3381 -8.89998
564 1 14.5031 19.9882 75.6378 -8.90001
565 1 7.55368 17.7679 82.9019 -8.89998
566 1 8.46012 17.7679 85.4657 -8.89998
567 1 9.36656 17.7679 88.0295 -8.89998
568 1 10.273 17.7679 90.5933 -8.89998
569 1 11.1794 17.7679 93.1571 -8.89998
570 1 12.0859 17.7679 95.7209 -8.89999
571 1 6.94939 19.9882 85.0384 -8.89998
572 1 7.85583 19.9882 87.6022 -8.89998
573 1 8.76227 19.9882 90.166 -8.89998
574 1 9.66871 19.9882 92.7298 -8.89998
575 1 10.5751 19.9882 95.2936 -8.89998
576 1 7.25154 17.7679 89.7387 -8.89998
577 1 8.15798 17.7679 92.3025 -8.89998
578 1 9.06442 17.7679 94.8663 -8.89998
579 1 7.55368 19.9882 94.439 -8.89998
580 1 6.94939 17.7679 96.5755 -8.91611
581 1 7.85583 17.7679 99.1393 -7.83773
582 1 8.46012 19.9882 97.0028 -8.92667
583 1 9.36656 19.9882 99.5666 -7.85861
584 1 9.97086 17.7679 97.4301 -8.93195
585 1 10.8773 17.7679 99.9939 -7.60504
586 1 11.4816 19.9882 97.8574 -8.94308
587 1 12.388 19.9882 100.421 -6.80401
588 1 12.9923 17.7679 98.2847 -8.6482
589 1 14.5031 19.9882 98.712 -8.16469
590 1 6.26623 22.295 51.1794 -8.57134
591 1 8.06236 22.1409 53.0647 -8.5306
592 1 8.75214 22.2131 55.6175 -8.5164
593 1 9.66894 22.2024 58.1251 -8.86476
594 1 10.5767 22.2043 60.6788 -8.8934
595 1 11.4825 22.2068 63.243 -8.90034
596 1 12.3886 22.208 65.8078 -8.90005
597 1 13.2947 22.2084 68.3725 -8.89999
598 1 14.201 22.2085 70.937 -8.89992
599 1 7.30625 24.4234 55.1765 -8.8606
600 1 8.15613 24.4271 57.7219 -8.90625
601 1 9.06811 24.4274 60.2624 -8.89563
602 1 9.97245 24.4278 62.8194 -8.89707
603 1 10.8781 24.4282 65.3816 -8.8993
604 1 11.7841 24.4284 67.9454 -8.89984
605 1 12.6903 24.4286 70.5097 -8.8999
606 1 13.5966 24.4289 73.074 -8.9
607 1 8.08138 24.4232 50.7387 -8.51615
608 1 9.40149 24.4255 53.2057 -8.65315
609 1 10.2433 24.4264 55.9778 -8.9992
610 1 11.1855 24.4262 58.5476 -8.90032
611 1 12.0875 24.427 61.1105 -8.9026
612 1 12.9934 24.4279 63.6723 -8.89945
613 1 13.8993 24.4283 66.2358 -8.89958
614 1 14.8055 24.4285 68.8001 -8.89992
615 1 9.62769 22.2656 50.8654 -8.58121
616 1 10.8087 22.3161 53.9467 -8.37866
617 1 11.8053 22.1963 56.4201 -8.93829
618 1 12.6958 22.2009 58.9724 -8.89625
619 1 13.5982 22.2048 61.5338 -8.89312
620 1 14.5038 22.2074 64.0977 -8.89931
621 1 12.011 24.4734 51.8001 -8.01562
622 1 12.3979 24.4165 54.4137 -8.27482
623 1 13.3253 24.4231 56.8848 -8.73617
624 1 14.2056 24.4263 59.4089 -8.87304
625 1 14.4718 22.3099 51.1299 -8.30446
626 1 13.8841 22.1894 54.4945 -8.90401
627 1 14.7925 22.194 57.2143 -8.89404
628 1 14.4858 24.4174 52.7309 -8.22052
629 1 7.55012 22.2045 59.818 -8.91658
630 1 8.46075 22.2068 62.388 -8.90188
631 1 9.36709 22.2079 64.9531 -8.90015
632 1 10.2733 22.2084 67.5177 -8.90002
633 1 11.1796 22.2085 70.0823 -8.89983
634 1 12.0859 22.2086 72.6467 -8.90002
635 1 6.95083 24.4282 61.9646 -8.89877
636 1 7.85649 24.4283 64.5268 -8.89976
637 1 8.76263 24.4284 67.0907 -8.8999
638 1 9.66889 24.4286 69.6549 -8.90002
639 1 10.5751 24.4289 72.2194 -8.89998
640 1 7.25184 22.2084 66.6628 -8.90003
641 1 8.15814 22.2085 69.2274 -8.90002
642 1 9.06448 22.2086 71.7917 -8.89999
643 1 7.55374 24.4287 71.3644 -8.89993
644 1 6.94939 22.2086 73.5013 -8.90003
645 1 7.85583 22.2086 76.0651 -8.9
646 1 8.76227 22.2086 78.6289 -8.89998
647 1 9.66871 22.2086 81.1927 -8.89998
648 1 10.5751 22.2086 83.7565 -8.89998
649 1 11.4816 22.2086 86.3203 -8.89998
650 1 12.388 22.2086 88.8841 -8.89998
651 1 13.2945 22.2086 91.4479 -8.89998
652 1 14.2009 22.2086 94.0117 -8.89998
653 1 7.25154 24.4289 78.2016 -8.89998
654 1 8.15798 24.4289 80.7654 -8.89998
655 1 9.06442 24.4289 83.3292 -8.89998
656 1 9.97086 24.4289 85.893 -8.89998
657 1 10.8773 24.4289 88.4568 -8.89998
658 1 11.7837 24.4289 91.0206 -8.89998
659 1 12.6902 24.4289 93.5844 -8.89998
660 1 13.5966 24.4289 96.1482 -8.91055
661 1 8.46012 24.4289 73.9286 -8.89998
662 1 9.36656 24.4289 76.4924 -8.9
663 1 10.273 24.4289 79.0562 -8.89998
664 1 11.1794 24.4289 81.62 -8.89998
665 1 12.0859 24.4289 84.1838 -8.89998
666 1 12.9923 24.4289 86.7476 -8.89998
667 1 13.8988 24.4289 89.3114 -8.89998
668 1 14.8052 24.4289 91.8752 -8.89998
669 1 9.97086 22.2086 74.3559 -8.90007
670 1 10.8773 22.2086 76.9197 -8.89998
671 1 11.7837 22.2086 79.4835 -8.89998
672 1 12.6902 22.2086 82.0473 -8.89998
673 1 13.5966 22.2086 84.6111 -8.89998
674 1 14.5031 22.2086 87.1749 -8.89998
675 1 11.4816 24.4289 74.7832 -8.90003
676 1 12.388 24.4289 77.347 -8.89998
677 1 13.2945 24.4289 79.9108 -8.89998
678 1 14.2009 24.4289 82.4746 -8.89998
679 1 12.9923 22.2086 75.2105 -8.90003
680 1 13.8988 22.2086 77.7743 -8.89998
681 1 14.8052 22.2086 80.3381 -8.89998
682 1 14.5031 24.4289 75.6378 -8.90002
683 1 7.55368 22.2086 82.9019 -8.89998
684 1 8.46012 22.2086 85.4657 -8.89998
685 1 9.36656 22.2086 88.0295 -8.89998
686 1 10.273 22.2086 90.5933 -8.89998
687 1 11.1794 22.2086 93.1571 -8.89998
688 1 12.0859 22.2086 95.7209 -8.89999
689 1 6.94939 24.4289 85.0384 -8.89998
690 1 7.85583 24.4289 87.6022 -8.89998
691 1 8.76227 24.4289 90.166 -8.89998
692 1 9.66871 24.4289 92.7298 -8.89998
693 1 10.5751 24.4289 95.2936 -8.89998
694 1 7.25154 22.2086 89.7387 -8.89998
695 1 8.15798 22.2086 92.3025 -8.89998
696 1 9.06442 22.2086 94.8663 -8.89998
697 1 7.55368 24.4289 94.439 -8.89998
698 1 6.94939 22.2086 96.5755 -8.91611
699 1 7.85583 22.2086 99.1393 -7.83773
700 1 8.46012 24.4289 97.0028 -8.92667
701 1 9.36656 24.4289 99.5666 -7.85861
702 1 9.97086 22.2086 97.4301 -8.93195
703 1 10.8773 22.2086 99.9939 -7.60504
704 1 11.4816 24.4289 97.8574 -8.94308
705 1 12.388 24.4289 100.421 -6.80401
706 1 12.9923 22.2086 98.2847 -8.6482
707 1 14.5031 24.4289 98.712 -8.16469
708 1 8.09615 26.7249 53.0728 -8.52619
709 1 8.75826 26.6393 55.6314 -8.55778
710 1 9.6738 26.6538 58.1368 -8.86896
711 1 10.577 26.6515 60.684 -8.8925
712 1 11.4825 26.6493 63.2454 -8.89984
713 1 12.3885 26.6486 65.8089 -8.89999
714 1 13.2947 26.6486 68.373 -8.89997
715 1 14.201 26.6488 70.9372 -8.89994
716 1 7.31054 28.8937 55.0781 -8.89491
717 1 8.15065 28.8743 57.696 -8.89591
718 1 9.0655 28.8719 60.2522 -8.89753
719 1 9.9709 28.8696 62.8172 -8.89897
720 1 10.8773 28.8688 65.3818 -8.90005
721 1 11.7838 28.8687 67.946 -8.90003
722 1 12.6902 28.869 70.51 -8.89998
723 1 13.5966 28.8695 73.074 -8.9
724 1 8.10774 28.8734 50.797 -8.63602
725 1 9.67534 28.8779 53.0567 -8.80475
726 1 10.2334 28.8678 55.9319 -8.89249
727 1 11.1835 28.8758 58.5258 -8.91283
728 1 12.0863 28.871 61.1048 -8.90611
729 1 12.9925 28.869 63.6718 -8.90108
730 1 13.8989 28.8686 66.2365 -8.90013
731 1 14.8053 28.8687 68.8007 -8.90003
732 1 9.63099 26.5882 50.8514 -8.63206
733 1 10.816 26.53 53.954 -8.46269
734 1 11.8031 26.6575 56.427 -8.9364
735 1 12.6919 26.6538 58.9792 -8.8907
736 1 13.5977 26.6509 61.5371 -8.89252
737 1 14.5038 26.6491 64.0992 -8.89915
738 1 12.1385 30.0551 51.9201 -8.3857
739 1 12.3488 28.8641 54.3373 -8.69241
740 1 13.3113 28.8756 56.8186 -8.72367
741 1 14.1981 28.8745 59.3816 -8.88271
742 1 12.1348 27.4383 51.9329 -8.23329
743 1 13.8687 26.662 54.4942 -8.90154
744 1 14.7638 26.6593 57.2367 -8.87055
745 1 14.3953 28.8471 52.6394 -8.58757
746 1 7.552 26.6537 59.8268 -8.91543
747 1 8.46073 26.6502 62.3909 -8.90108
748 1 9.36698 26.6489 64.9544 -8.89992
749 1 10.2732 26.6486 67.5184 -8.89994
750 1 11.1796 26.6487 70.0825 -8.89986
751 1 12.0859 26.6492 72.6467 -8.9
752 1 6.94847 28.8708 61.9579 -8.90342
753 1 7.85563 28.8691 64.526 -8.90093
754 1 8.76224 28.8687 67.0911 -8.90021
755 1 9.66873 28.8689 69.6553 -8.90005
756 1 10.5751 28.8695 72.2194 -8.89999
757 1 7.25176 26.6487 66.6634 -8.89984
758 1 8.15809 26.6487 69.2277 -8.89997
759 1 9.06446 26.6489 71.7918 -8.89997
760 1 7.55369 28.8691 71.3646 -8.89997
761 1 6.94939 26.6492 73.5013 -8.90001
762 1 7.85583 26.6492 76.0651 -8.89999
763 1 8.76227 26.6492 78.6289 -8.89998
764 1 9.66871 26.6492 81.1927 -8.89998
765 1 10.5751 26.6492 83.7565 -8.89998
766 1 11.4816 26.6492 86.3203 -8.89998
767 1 12.388 26.6492 88.8841 -8.89998
768 1 13.2945 26.6492 91.4479 -8.89998
769 1 14.2009 26.6492 94.0117 -8.89998
770 1 7.25154 28.8695 78.2016 -8.89998