ITEM: TIMESTEP
0
ITEM: NUMBER OF ATOMS
6596
ITEM: BOX BOUNDS pp pp ss
0.0000000000000000e+00 3.2631837214597660e+01
0.0000000000000000e+00 3.1084414100960640e+01
-1.0024769408271492e-02 1.0042999807348086e+02
ITEM: ATOMS id type x y z c_eng
1 1 4.13224 4.48736 49.4835 -8.57805
2 1 3.54012 4.47179 52.6461 -9.0056
3 1 4.50889 4.44259 55.4787 -8.87952
4 1 5.43624 4.44267 58.1034 -8.91777
5 1 6.34722 4.44391 60.6769 -8.90243
6 1 7.25368 4.44443 63.2428 -8.90025
7 1 8.15989 4.44469 65.8075 -8.90002
8 1 9.06609 4.44491 68.3718 -8.9
9 1 9.97233 4.44516 70.936 -8.89995
10 1 3.04345 6.66856 55.1461 -8.73043
11 1 3.92961 6.65864 57.6874 -8.87855
12 1 4.83721 6.66279 60.2534 -8.90158
13 1 5.74333 6.66425 62.8172 -8.90023
14 1 6.64935 6.6647 65.3811 -8.90004
15 1 7.55547 6.665 67.9449 -8.89998
16 1 8.46167 6.66532 70.5088 -8.89997
17 1 9.36788 6.66577 73.0727 -8.89996
18 1 5.20129 6.64606 53.4368 -8.85743
19 1 6.61036 8.87351 53.9384 -8.53452
20 1 6.04009 6.66007 56.0034 -8.90385
21 1 6.95411 6.66265 58.5488 -8.89367
22 1 7.85895 6.66426 61.1084 -8.89767
23 1 8.76462 6.66467 63.6715 -8.89956
24 1 9.67063 6.66489 66.2354 -8.89993
25 1 10.5768 6.66514 68.7994 -8.89997
26 1 5.95832 4.3878 51.3405 -8.57292
27 1 6.65542 4.44617 53.8909 -8.50637
28 1 7.55718 4.44175 56.4048 -8.87114
29 1 8.46243 4.44355 58.966 -8.89624
30 1 9.36861 4.4443 61.5323 -8.90085
31 1 10.2749 4.44462 64.0975 -8.90019
32 1 7.32779 6.65884 51.4628 -8.5414
33 1 8.12444 6.66298 54.2611 -8.98189
34 1 9.07264 6.66273 56.8316 -8.89856
35 1 9.97427 6.66439 59.3986 -8.90345
36 1 8.70495 4.51205 52.1859 -8.68718
37 1 9.69205 4.44717 54.6695 -8.93547
38 1 10.5779 4.44329 57.2549 -8.89276
39 1 10.2801 6.71969 52.7082 -8.3161
40 1 3.32689 4.44363 59.8218 -8.89496
41 1 4.23267 4.44412 62.388 -8.89996
42 1 5.13864 4.44451 64.9529 -8.90007
43 1 6.04477 4.44477 67.5172 -8.90003
44 1 6.95097 4.44505 70.0814 -8.89992
45 1 7.85714 4.44545 72.6454 -8.90002
46 1 2.72196 6.66389 61.9648 -8.89976
47 1 3.62799 6.66453 64.5274 -8.89971
48 1 4.53408 6.66487 67.0907 -8.8999
49 1 5.44028 6.66519 69.6543 -8.89996
50 1 6.34641 6.66577 72.2181 -8.89999
51 1 3.02338 4.44466 66.663 -8.90003
52 1 3.92957 4.44491 69.2268 -8.89998
53 1 4.83581 4.44521 71.7907 -8.89999
54 1 3.32507 6.66541 71.3636 -8.90001
55 1 2.72065 4.44545 73.5 -8.89999
56 1 3.62709 4.44545 76.0638 -8.89998
57 1 4.53353 4.44545 78.6276 -8.89998
58 1 5.43997 4.44545 81.1914 -8.89998
59 1 6.34641 4.44545 83.7552 -8.89998
60 1 7.25285 4.44545 86.319 -8.89998
61 1 8.15929 4.44545 88.8828 -8.89998
62 1 9.06573 4.44545 91.4466 -8.89998
63 1 9.97217 4.44545 94.0104 -8.89998
64 1 3.0228 6.66577 78.2003 -8.89998
65 1 3.92924 6.66577 80.7641 -8.89998
66 1 4.83568 6.66577 83.3279 -8.89998
67 1 5.74212 6.66577 85.8917 -8.89998
68 1 6.64856 6.66577 88.4555 -8.89998
69 1 7.555 6.66577 91.0193 -8.89998
70 1 8.46144 6.66577 93.5831 -8.89998
71 1 9.36788 6.66577 96.1469 -8.91055
72 1 4.23138 6.66577 73.9273 -8.89996
73 1 5.13782 6.66577 76.4911 -8.89998
74 1 6.04426 6.66577 79.0549 -8.89998
75 1 6.9507 6.66577 81.6187 -8.89998
76 1 7.85714 6.66577 84.1825 -8.89998
77 1 8.76358 6.66577 86.7463 -8.89998
78 1 9.67002 6.66577 89.3101 -8.89998
79 1 10.5765 6.66577 91.8739 -8.89998
80 1 5.74212 4.44545 74.3546 -8.9
81 1 6.64856 4.44545 76.9184 -8.89998
82 1 7.555 4.44545 79.4822 -8.89998
83 1 8.46144 4.44545 82.046 -8.89998
84 1 9.36788 4.44545 84.6098 -8.89998
85 1 10.2743 4.44545 87.1736 -8.89998
86 1 7.25285 6.66577 74.7819 -8.89999
87 1 8.15929 6.66577 77.3457 -8.89998
88 1 9.06573 6.66577 79.9095 -8.89998
89 1 9.97217 6.66577 82.4733 -8.89998
90 1 8.76358 4.44545 75.2092 -8.9
91 1 9.67002 4.44545 77.773 -8.89998
92 1 10.5765 4.44545 80.3368 -8.89998
93 1 10.2743 6.66577 75.6365 -8.89999
94 1 3.32494 4.44545 82.9006 -8.89998
95 1 4.23138 4.44545 85.4644 -8.89998
96 1 5.13782 4.44545 88.0282 -8.89998
97 1 6.04426 4.44545 90.592 -8.89998
98 1 6.9507 4.44545 93.1558 -8.89998
99 1 7.85714 4.44545 95.7196 -8.89999
100 1 2.72065 6.66577 85.0371 -8.89998
101 1 3.62709 6.66577 87.6009 -8.89998
102 1 4.53353 6.66577 90.1647 -8.89998
103 1 5.43997 6.66577 92.7285 -8.89998
104 1 6.34641 6.66577 95.2923 -8.89998
105 1 3.0228 4.44545 89.7374 -8.89998
106 1 3.92924 4.44545 92.3012 -8.89998
107 1 4.83568 4.44545 94.865 -8.89998
108 1 3.32494 6.66577 94.4377 -8.89998
109 1 2.72065 4.44545 96.5742 -8.91611
110 1 3.62709 4.44545 99.138 -7.83773
111 1 4.23138 6.66577 97.0015 -8.92667
112 1 5.13782 6.66577 99.5653 -7.85861
113 1 5.74212 4.44545 97.4288 -8.93195
114 1 6.64856 4.44545 99.9926 -7.60504
115 1 7.25285 6.66577 97.8561 -8.94308
116 1 8.15929 6.66577 100.42 -6.80401
117 1 8.76358 4.44545 98.2834 -8.6482
118 1 10.2743 6.66577 98.7107 -8.16469
119 1 3.65406 8.89462 52.8603 -8.91361
120 1 4.5068 8.88948 55.5574 -8.87783
121 1 5.44118 8.88657 58.1259 -8.91799
122 1 6.34867 8.88563 60.6838 -8.89998
123 1 7.25412 8.88519 63.2458 -8.89986
124 1 8.15999 8.88517 65.8089 -8.89989
125 1 9.06612 8.88536 68.3725 -8.89996
126 1 9.97235 8.88567 70.9363 -8.89998
127 1 3.04951 11.1076 55.1412 -8.72553
128 1 3.92933 11.1142 57.6862 -8.87725
129 1 4.83631 11.1079 60.2546 -8.90252
130 1 5.74267 11.1059 62.8188 -8.9006
131 1 6.64895 11.1056 65.3824 -8.90016
132 1 7.55527 11.1057 67.9457 -8.90003
133 1 8.4616 11.106 70.5092 -8.90002
134 1 9.36788 11.1064 73.0727 -8.89995
135 1 7.54972 11.0872 51.2797 -8.74654
136 1 5.22739 11.1338 53.3964 -8.84231
137 1 6.03908 11.1126 56.004 -8.9045
138 1 6.95377 11.1093 58.5473 -8.89467
139 1 7.85825 11.1064 61.1095 -8.89845
140 1 8.76418 11.1056 63.6729 -8.89988
141 1 9.67041 11.1056 66.2364 -8.90004
142 1 10.5767 11.1058 68.8 -8.9
143 1 5.96896 8.93574 51.3594 -8.54004
144 1 8.66898 8.79605 52.2891 -8.06256
145 1 7.56078 8.88882 56.4311 -8.86184
146 1 8.46507 8.88743 58.975 -8.89177
147 1 9.36956 8.88584 61.536 -8.89984
148 1 10.2752 8.88529 64.0993 -8.89998
149 1 9.99944 9.48531 50.2369 -7.94756
150 1 8.11688 11.1073 54.2189 -8.90064
151 1 9.06828 11.1146 56.8173 -8.90986
152 1 9.97268 11.1081 59.3958 -8.90537
153 1 7.31655 8.88962 48.944 -8.55253
154 1 9.69716 8.89472 54.7355 -8.94111
155 1 10.5845 8.89045 57.2721 -8.89696
156 1 10.2393 11.0633 52.6338 -8.69667
157 1 3.32812 8.88586 59.8378 -8.88513
158 1 4.23309 8.88523 62.3936 -8.89796
159 1 5.13865 8.88513 64.9552 -8.89958
160 1 6.04472 8.88528 67.5183 -8.89991
161 1 6.95095 8.88558 70.0818 -8.89999
162 1 7.85714 8.88608 72.6454 -8.9
163 1 2.7211 11.1066 61.9661 -8.9003
164 1 3.62741 11.1058 64.5287 -8.8999
165 1 4.53374 11.1058 67.0916 -8.89994
166 1 5.44011 11.1059 69.6548 -8.89993
167 1 6.34641 11.1064 72.2181 -8.89999
168 1 3.02314 8.88528 66.6643 -8.89989
169 1 3.92946 8.88549 69.2275 -8.89994
170 1 4.83578 8.88582 71.791 -8.9
171 1 3.32498 11.1061 71.3638 -8.90004
172 1 2.72065 8.88608 73.5 -8.89997
173 1 3.62709 8.88608 76.0638 -8.89997
174 1 4.53353 8.88608 78.6276 -8.89998
175 1 5.43997 8.88608 81.1914 -8.89998
176 1 6.34641 8.88608 83.7552 -8.89998
177 1 7.25285 8.88608 86.319 -8.89998
178 1 8.15929 8.88608 88.8828 -8.89998
179 1 9.06573 8.88608 91.4466 -8.89998
180 1 9.97217 8.88608 94.0104 -8.89998
181 1 3.0228 11.1064 78.2003 -8.89998
182 1 3.92924 11.1064 80.7641 -8.89998
183 1 4.83568 11.1064 83.3279 -8.89998
184 1 5.74212 11.1064 85.8917 -8.89998
185 1 6.64856 11.1064 88.4555 -8.89998
186 1 7.555 11.1064 91.0193 -8.89998
187 1 8.46144 11.1064 93.5831 -8.89998
188 1 9.36788 11.1064 96.1469 -8.91055
189 1 4.23138 11.1064 73.9273 -8.89997
190 1 5.13782 11.1064 76.4911 -8.89997
191 1 6.04426 11.1064 79.0549 -8.89998
192 1 6.9507 11.1064 81.6187 -8.89998
193 1 7.85714 11.1064 84.1825 -8.89998
194 1 8.76358 11.1064 86.7463 -8.89998
195 1 9.67002 11.1064 89.3101 -8.89998
196 1 10.5765 11.1064 91.8739 -8.89998
197 1 5.74212 8.88608 74.3546 -8.89994
198 1 6.64856 8.88608 76.9184 -8.89998
199 1 7.555 8.88608 79.4822 -8.89998
200 1 8.46144 8.88608 82.046 -8.89998
201 1 9.36788 8.88608 84.6098 -8.89998
202 1 10.2743 8.88608 87.1736 -8.89998
203 1 7.25285 11.1064 74.7819 -8.89995
204 1 8.15929 11.1064 77.3457 -8.89998
205 1 9.06573 11.1064 79.9095 -8.89998
206 1 9.97217 11.1064 82.4733 -8.89998
207 1 8.76358 8.88608 75.2092 -8.89997
208 1 9.67002 8.88608 77.773 -8.89998
209 1 10.5765 8.88608 80.3368 -8.89998
210 1 10.2743 11.1064 75.6365 -8.89997
211 1 3.32494 8.88608 82.9006 -8.89998
212 1 4.23138 8.88608 85.4644 -8.89998
213 1 5.13782 8.88608 88.0282 -8.89998
214 1 6.04426 8.88608 90.592 -8.89998
215 1 6.9507 8.88608 93.1558 -8.89998
216 1 7.85714 8.88608 95.7196 -8.89999
217 1 2.72065 11.1064 85.0371 -8.89998
218 1 3.62709 11.1064 87.6009 -8.89998
219 1 4.53353 11.1064 90.1647 -8.89998
220 1 5.43997 11.1064 92.7285 -8.89998
221 1 6.34641 11.1064 95.2923 -8.89998
222 1 3.0228 8.88608 89.7374 -8.89998
223 1 3.92924 8.88608 92.3012 -8.89998
224 1 4.83568 8.88608 94.865 -8.89998
225 1 3.32494 11.1064 94.4377 -8.89998
226 1 2.72065 8.88608 96.5742 -8.91611
227 1 3.62709 8.88608 99.138 -7.83773
228 1 4.23138 11.1064 97.0015 -8.92667
229 1 5.13782 11.1064 99.5653 -7.85861
230 1 5.74212 8.88608 97.4288 -8.93195
231 1 6.64856 8.88608 99.9926 -7.60504
232 1 7.25285 11.1064 97.8561 -8.94308
233 1 8.15929 11.1064 100.42 -6.80401
234 1 8.76358 8.88608 98.2834 -8.6482
235 1 10.2743 11.1064 98.7107 -8.16469
236 1 1.75193 8.99281 50.3272 -7.99231
237 1 3.55279 13.3189 52.6392 -9.0103
238 1 4.51405 13.3271 55.4749 -8.86711
239 1 5.43372 13.3259 58.1075 -8.92438
240 1 6.34556 13.3254 60.6816 -8.90276
241 1 7.25265 13.3256 63.2464 -8.90057
242 1 8.15934 13.3259 65.8099 -8.90012
243 1 9.06585 13.3261 68.3732 -8.90001
244 1 9.97227 13.3264 70.9365 -8.90002
245 1 3.03344 15.5343 55.1202 -8.73043
246 1 3.92066 15.5358 57.6833 -8.88581
247 1 4.83259 15.5431 60.255 -8.90278
248 1 5.74097 15.5456 62.82 -8.90066
249 1 6.64811 15.5463 65.3833 -8.90014
250 1 7.55487 15.5467 67.9463 -8.90001
251 1 8.46145 15.5469 70.5094 -8.90003
252 1 9.36788 15.547 73.0727 -8.89995
253 1 4.14798 15.6338 50.949 -8.56337
254 1 5.20155 15.5182 53.3702 -8.84086
255 1 6.02704 15.5383 56.0059 -8.91397
256 1 6.94922 15.5411 58.5521 -8.89467
257 1 7.85614 15.5443 61.1129 -8.89777
258 1 8.76322 15.5457 63.675 -8.89979
259 1 9.66998 15.5464 66.2377 -8.89995
260 1 10.5765 15.5467 68.8006 -8.89996
261 1 5.98792 13.3289 51.3295 -8.62771
262 1 6.66331 13.333 53.891 -8.38669
263 1 7.55796 13.3272 56.4047 -8.86536
264 1 8.46061 13.3253 58.9689 -8.89726
265 1 9.36758 13.3251 61.536 -8.90203
266 1 10.2744 13.3256 64.1005 -8.90051
267 1 7.52962 15.6 51.2627 -8.61243
268 1 8.1166 15.5533 54.2395 -8.91843
269 1 9.06713 15.5391 56.8298 -8.91034
270 1 9.97183 15.542 59.4039 -8.90737
271 1 8.71071 13.3668 52.1405 -8.69997
272 1 9.6818 13.3331 54.6446 -8.92645
273 1 10.5713 13.3263 57.2509 -8.88623
274 1 10.2511 15.6352 52.6681 -8.57749
275 1 3.32419 13.3259 59.8258 -8.89668
276 1 4.23102 13.3259 62.3918 -8.90045
277 1 5.13769 13.326 64.9556 -8.90012
278 1 6.04426 13.3262 67.5189 -8.90003
279 1 6.95075 13.3264 70.0821 -8.9001
280 1 7.85714 13.3267 72.6454 -8.89998
281 1 2.71942 15.5456 61.9656 -8.90086
282 1 3.62644 15.5465 64.5288 -8.89995
283 1 4.5332 15.5468 67.0919 -8.89996
284 1 5.43983 15.5469 69.655 -8.89991
285 1 6.34641 15.547 72.2181 -8.89998
286 1 3.02266 13.3263 66.6647 -8.90006
287 1 3.9292 13.3264 69.2278 -8.89998
288 1 4.83567 13.3266 71.7911 -8.9
289 1 3.32486 15.547 71.3639 -8.90002
290 1 2.72065 13.3267 73.5 -8.89996
291 1 3.62709 13.3267 76.0638 -8.89996
292 1 4.53353 13.3267 78.6276 -8.89998
293 1 5.43997 13.3267 81.1914 -8.89998
294 1 6.34641 13.3267 83.7552 -8.89998
295 1 7.25285 13.3267 86.319 -8.89998
296 1 8.15929 13.3267 88.8828 -8.89998
297 1 9.06573 13.3267 91.4466 -8.89998
298 1 9.97217 13.3267 94.0104 -8.89998
299 1 3.0228 15.547 78.2003 -8.89998
300 1 3.92924 15.547 80.7641 -8.89998
301 1 4.83568 15.547 83.3279 -8.89998
302 1 5.74212 15.547 85.8917 -8.89998
303 1 6.64856 15.547 88.4555 -8.89998
304 1 7.555 15.547 91.0193 -8.89998
305 1 8.46144 15.547 93.5831 -8.89998
306 1 9.36788 15.547 96.1469 -8.91055
307 1 4.23138 15.547 73.9273 -8.89998
308 1 5.13782 15.547 76.4911 -8.89996
309 1 6.04426 15.547 79.0549 -8.89998
310 1 6.9507 15.547 81.6187 -8.89998
311 1 7.85714 15.547 84.1825 -8.89998
312 1 8.76358 15.547 86.7463 -8.89998
313 1 9.67002 15.547 89.3101 -8.89998
314 1 10.5765 15.547 91.8739 -8.89998
315 1 5.74212 13.3267 74.3546 -8.8999
316 1 6.64856 13.3267 76.9184 -8.89998
317 1 7.555 13.3267 79.4822 -8.89998
318 1 8.46144 13.3267 82.046 -8.89998
319 1 9.36788 13.3267 84.6098 -8.89998
320 1 10.2743 13.3267 87.1736 -8.89998
321 1 7.25285 15.547 74.7819 -8.89993
322 1 8.15929 15.547 77.3457 -8.89998
323 1 9.06573 15.547 79.9095 -8.89998
324 1 9.97217 15.547 82.4733 -8.89998
325 1 8.76358 13.3267 75.2092 -8.89995
326 1 9.67002 13.3267 77.773 -8.89998
327 1 10.5765 13.3267 80.3368 -8.89998
328 1 10.2743 15.547 75.6365 -8.89995
329 1 3.32494 13.3267 82.9006 -8.89998
330 1 4.23138 13.3267 85.4644 -8.89998
331 1 5.13782 13.3267 88.0282 -8.89998
332 1 6.04426 13.3267 90.592 -8.89998
333 1 6.9507 13.3267 93.1558 -8.89998
334 1 7.85714 13.3267 95.7196 -8.89999
335 1 2.72065 15.547 85.0371 -8.89998
336 1 3.62709 15.547 87.6009 -8.89998
337 1 4.53353 15.547 90.1647 -8.89998
338 1 5.43997 15.547 92.7285 -8.89998
339 1 6.34641 15.547 95.2923 -8.89998
340 1 3.0228 13.3267 89.7374 -8.89998
341 1 3.92924 13.3267 92.3012 -8.89998
342 1 4.83568 13.3267 94.865 -8.89998
343 1 3.32494 15.547 94.4377 -8.89998
344 1 2.72065 13.3267 96.5742 -8.91611
345 1 3.62709 13.3267 99.138 -7.83773
346 1 4.23138 15.547 97.0015 -8.92667
347 1 5.13782 15.547 99.5653 -7.85861
348 1 5.74212 13.3267 97.4288 -8.93195
349 1 6.64856 13.3267 99.9926 -7.60504
350 1 7.25285 15.547 97.8561 -8.94308
351 1 8.15929 15.547 100.42 -6.80401
352 1 8.76358 13.3267 98.2834 -8.6482
353 1 10.2743 15.547 98.7107 -8.16469
354 1 1.8658 14.5362 50.2091 -8.37303
355 1 3.63007 17.7453 52.8336 -8.90107
356 1 4.46452 17.7547 55.5759 -8.83459
357 1 5.43155 17.7622 58.1319 -8.91455
358 1 6.34418 17.7655 60.6883 -8.89953
359 1 7.25182 17.7666 63.2489 -8.89974
360 1 8.15886 17.7671 65.8109 -8.89982
361 1 9.0656 17.7673 68.3736 -8.8999
362 1 9.97217 17.7674 70.9367 -8.9
363 1 3.04851 19.9887 55.1764 -8.70693
364 1 3.92647 19.9917 57.7033 -8.87559
365 1 4.83322 19.9892 60.2592 -8.89883
366 1 5.74049 19.9883 62.8205 -8.89972
367 1 6.64772 19.9881 65.3832 -8.89987
368 1 7.55463 19.988 67.9461 -8.89994
369 1 8.46133 19.9879 70.5093 -8.90001
370 1 9.36788 19.9877 73.0727 -8.89996
371 1 4.24824 19.9282 51.0093 -8.20861
372 1 5.22512 19.9975 53.4434 -8.82077
373 1 6.03289 19.9867 56.0223 -8.90501
374 1 6.94977 19.9892 58.5577 -8.89584
375 1 7.85547 19.9883 61.1152 -8.89705
376 1 8.76269 19.9881 63.6757 -8.8994
377 1 9.66968 19.9881 66.2378 -8.89983
378 1 10.5764 19.988 68.8006 -8.89992
379 1 5.96841 17.7499 51.3909 -8.51705
380 1 6.56635 17.7477 53.9835 -8.40143
381 1 7.55506 17.7622 56.4548 -8.83636
382 1 8.46133 17.7644 58.9865 -8.88804
383 1 9.36752 17.7659 61.543 -8.89958
384 1 10.2742 17.7668 64.1032 -8.89967
385 1 7.49911 19.9266 51.2859 -8.60097
386 1 8.11487 19.9753 54.2481 -8.94185
387 1 9.06472 19.9884 56.8354 -8.91113
388 1 9.9694 19.9888 59.408 -8.90829
389 1 8.63974 17.7705 52.385 -7.76112
390 1 9.71344 17.761 54.7911 -8.90318
391 1 10.5926 17.7635 57.3067 -8.88339
392 1 10.251 19.888 52.6718 -8.53002
393 1 3.32105 17.7648 59.8351 -8.89011
394 1 4.22976 17.7666 62.3939 -8.89854
395 1 5.13695 17.7672 64.9562 -8.8997
396 1 6.04385 17.7674 67.5191 -8.8999
397 1 6.95055 17.7674 70.0822 -8.90008
398 1 7.85714 17.7673 72.6454 -8.89994
399 1 2.71877 19.9887 61.9649 -8.89942
400 1 3.62602 19.9883 64.5281 -8.89957
401 1 4.53294 19.9882 67.0914 -8.89988
402 1 5.43968 19.988 69.6548 -8.89991
403 1 6.34641 19.9877 72.2181 -8.89997
404 1 3.02219 17.7676 66.6645 -8.89989
405 1 3.92894 17.7675 69.2277 -8.89994
406 1 4.83557 17.7674 71.7911 -8.89998
407 1 3.3248 19.9879 71.3637 -8.89998
408 1 2.72065 17.7673 73.5 -8.89996
409 1 3.62709 17.7673 76.0638 -8.89997
410 1 4.53353 17.7673 78.6276 -8.89998
411 1 5.43997 17.7673 81.1914 -8.89998
412 1 6.34641 17.7673 83.7552 -8.89998
413 1 7.25285 17.7673 86.319 -8.89998
414 1 8.15929 17.7673 88.8828 -8.89998
415 1 9.06573 17.7673 91.4466 -8.89998
416 1 9.97217 17.7673 94.0104 -8.89998
417 1 3.0228 19.9877 78.2003 -8.89998
418 1 3.92924 19.9877 80.7641 -8.89998
419 1 4.83568 19.9877 83.3279 -8.89998
420 1 5.74212 19.9877 85.8917 -8.89998
421 1 6.64856 19.9877 88.4555 -8.89998
422 1 7.555 19.9877 91.0193 -8.89998
423 1 8.46144 19.9877 93.5831 -8.89998
424 1 9.36788 19.9877 96.1469 -8.91055
425 1 4.23138 19.9877 73.9273 -8.9
426 1 5.13782 19.9877 76.4911 -8.89997
427 1 6.04426 19.9877 79.0549 -8.89998
428 1 6.9507 19.9877 81.6187 -8.89998
429 1 7.85714 19.9877 84.1825 -8.89998
430 1 8.76358 19.9877 86.7463 -8.89998
431 1 9.67002 19.9877 89.3101 -8.89998
432 1 10.5765 19.9877 91.8739 -8.89998
433 1 5.74212 17.7673 74.3546 -8.89991
434 1 6.64856 17.7673 76.9184 -8.89998
435 1 7.555 17.7673 79.4822 -8.89998
436 1 8.46144 17.7673 82.046 -8.89998
437 1 9.36788 17.7673 84.6098 -8.89998
438 1 10.2743 17.7673 87.1736 -8.89998
439 1 7.25285 19.9877 74.7819 -8.89995
440 1 8.15929 19.9877 77.3457 -8.89998
441 1 9.06573 19.9877 79.9095 -8.89998
442 1 9.97217 19.9877 82.4733 -8.89998
443 1 8.76358 17.7673 75.2092 -8.89994
444 1 9.67002 17.7673 77.773 -8.89998
445 1 10.5765 17.7673 80.3368 -8.89998
446 1 10.2743 19.9877 75.6365 -8.89996
447 1 3.32494 17.7673 82.9006 -8.89998
448 1 4.23138 17.7673 85.4644 -8.89998
449 1 5.13782 17.7673 88.0282 -8.89998
450 1 6.04426 17.7673 90.592 -8.89998
451 1 6.9507 17.7673 93.1558 -8.89998
452 1 7.85714 17.7673 95.7196 -8.89999
453 1 2.72065 19.9877 85.0371 -8.89998
454 1 3.62709 19.9877 87.6009 -8.89998
455 1 4.53353 19.9877 90.1647 -8.89998
456 1 5.43997 19.9877 92.7285 -8.89998
457 1 6.34641 19.9877 95.2923 -8.89998
458 1 3.0228 17.7673 89.7374 -8.89998
459 1 3.92924 17.7673 92.3012 -8.89998
460 1 4.83568 17.7673 94.865 -8.89998
461 1 3.32494 19.9877 94.4377 -8.89998
462 1 2.72065 17.7673 96.5742 -8.91611
463 1 3.62709 17.7673 99.138 -7.83773
464 1 4.23138 19.9877 97.0015 -8.92667
465 1 5.13782 19.9877 99.5653 -7.85861
466 1 5.74212 17.7673 97.4288 -8.93195
467 1 6.64856 17.7673 99.9926 -7.60504
468 1 7.25285 19.9877 97.8561 -8.94308
469 1 8.15929 19.9877 100.42 -6.80401
470 1 8.76358 17.7673 98.2834 -8.6482
471 1 10.2743 19.9877 98.7107 -8.16469
472 1 3.5656 22.1852 52.6635 -8.97942
473 1 4.51447 22.211 55.4805 -8.87815
474 1 5.43326 22.2108 58.1074 -8.92056
475 1 6.34361 22.2095 60.6811 -8.90218
476 1 7.25137 22.209 63.246 -8.90033
477 1 8.15862 22.2088 65.8096 -8.90003
478 1 9.06548 22.2086 68.373 -8.89998
479 1 9.97211 22.2083 70.9364 -8.9
480 1 3.04016 24.4226 55.1053 -8.72429
481 1 3.92743 24.4238 57.667 -8.88187
482 1 4.83407 24.4277 60.2465 -8.9043
483 1 5.74106 24.4288 62.8157 -8.90117
484 1 6.64797 24.429 65.3809 -8.90028
485 1 7.55472 24.4289 67.9451 -8.90005
486 1 8.46134 24.4287 70.5089 -8.9
487 1 9.36788 24.4283 73.0727 -8.9
488 1 4.12873 24.4381 50.9231 -8.59607
489 1 5.19164 24.4021 53.3494 -8.8932
490 1 6.0345 24.4237 55.9778 -8.90294
491 1 6.94933 24.4262 58.5395 -8.89625
492 1 7.85516 24.4284 61.1068 -8.89886
493 1 8.76261 24.429 63.6719 -8.90006
494 1 9.66964 24.429 66.236 -8.90007
495 1 10.5764 24.4289 68.7998 -8.90001
496 1 5.99599 22.2144 51.332 -8.61883
497 1 6.66044 22.2108 53.8937 -8.42562
498 1 7.55379 22.207 56.4075 -8.86709
499 1 8.45565 22.2088 58.9718 -8.8947
500 1 9.36541 22.2091 61.5373 -8.90164
501 1 10.2734 22.2089 64.1009 -8.90034
502 1 7.54727 24.4317 51.3434 -8.79942
503 1 8.11928 24.4294 54.2133 -8.89558
504 1 9.06333 24.4219 56.8132 -8.90893
505 1 9.96795 24.4276 59.3957 -8.90563
506 1 8.7055 22.1428 52.1625 -8.69467
507 1 9.67766 22.1962 54.6573 -8.93045
508 1 10.558 22.2071 57.264 -8.87777
509 1 10.2433 24.4422 52.6299 -8.69782
510 1 3.3236 22.2103 59.824 -8.89562
511 1 4.23004 22.2094 62.3899 -8.89985
512 1 5.13694 22.2089 64.9544 -8.90003
513 1 6.0438 22.2086 67.5182 -8.9
514 1 6.9505 22.2084 70.0818 -8.90003
515 1 7.85714 22.208 72.6454 -8.89996
516 1 2.72078 24.4287 61.9603 -8.90129
517 1 3.62677 24.429 64.5257 -8.90015
518 1 4.53324 24.429 67.0902 -8.90003
519 1 5.43981 24.4288 69.6542 -8.90001
520 1 6.34641 24.4283 72.2181 -8.89998
521 1 3.02232 22.2088 66.6633 -8.90001
522 1 3.92896 22.2085 69.2272 -8.89998
523 1 4.83557 22.2082 71.7909 -8.89997
524 1 3.32487 24.4286 71.3634 -8.89995
525 1 2.72065 22.208 73.5 -8.89998
526 1 3.62709 22.208 76.0638 -8.89998
527 1 4.53353 22.208 78.6276 -8.89998
528 1 5.43997 22.208 81.1914 -8.89998
529 1 6.34641 22.208 83.7552 -8.89998
530 1 7.25285 22.208 86.319 -8.89998
531 1 8.15929 22.208 88.8828 -8.89998
532 1 9.06573 22.208 91.4466 -8.89998
533 1 9.97217 22.208 94.0104 -8.89998
534 1 3.0228 24.4283 78.2003 -8.89998
535 1 3.92924 24.4283 80.7641 -8.89998
536 1 4.83568 24.4283 83.3279 -8.89998
537 1 5.74212 24.4283 85.8917 -8.89998
538 1 6.64856 24.4283 88.4555 -8.89998
539 1 7.555 24.4283 91.0193 -8.89998
540 1 8.46144 24.4283 93.5831 -8.89998
541 1 9.36788 24.4283 96.1469 -8.91055
542 1 4.23138 24.4283 73.9273 -8.9
543 1 5.13782 24.4283 76.4911 -8.89998
544 1 6.04426 24.4283 79.0549 -8.89998
545 1 6.9507 24.4283 81.6187 -8.89998
546 1 7.85714 24.4283 84.1825 -8.89998
547 1 8.76358 24.4283 86.7463 -8.89998
548 1 9.67002 24.4283 89.3101 -8.89998
549 1 10.5765 24.4283 91.8739 -8.89998
550 1 5.74212 22.208 74.3546 -8.89996
551 1 6.64856 22.208 76.9184 -8.89998
552 1 7.555 22.208 79.4822 -8.89998
553 1 8.46144 22.208 82.046 -8.89998
554 1 9.36788 22.208 84.6098 -8.89998
555 1 10.2743 22.208 87.1736 -8.89998
556 1 7.25285 24.4283 74.7819 -8.89998
557 1 8.15929 24.4283 77.3457 -8.89998
558 1 9.06573 24.4283 79.9095 -8.89998
559 1 9.97217 24.4283 82.4733 -8.89998
560 1 8.76358 22.208 75.2092 -8.89996
561 1 9.67002 22.208 77.773 -8.89998
562 1 10.5765 22.208 80.3368 -8.89998
563 1 10.2743 24.4283 75.6365 -8.89998
564 1 3.32494 22.208 82.9006 -8.89998
565 1 4.23138 22.208 85.4644 -8.89998
566 1 5.13782 22.208 88.0282 -8.89998
567 1 6.04426 22.208 90.592 -8.89998
568 1 6.9507 22.208 93.1558 -8.89998
569 1 7.85714 22.208 95.7196 -8.89999
570 1 2.72065 24.4283 85.0371 -8.89998
571 1 3.62709 24.4283 87.6009 -8.89998
572 1 4.53353 24.4283 90.1647 -8.89998
573 1 5.43997 24.4283 92.7285 -8.89998
574 1 6.34641 24.4283 95.2923 -8.89998
575 1 3.0228 22.208 89.7374 -8.89998
576 1 3.92924 22.208 92.3012 -8.89998
577 1 4.83568 22.208 94.865 -8.89998
578 1 3.32494 24.4283 94.4377 -8.89998
579 1 2.72065 22.208 96.5742 -8.91611
580 1 3.62709 22.208 99.138 -7.83773
581 1 4.23138 24.4283 97.0015 -8.92667
582 1 5.13782 24.4283 99.5653 -7.85861
583 1 5.74212 22.208 97.4288 -8.93195
584 1 6.64856 22.208 99.9926 -7.60504
585 1 7.25285 24.4283 97.8561 -8.94308
586 1 8.15929 24.4283 100.42 -6.80401
587 1 8.76358 22.208 98.2834 -8.6482
588 1 10.2743 24.4283 98.7107 -8.16469
589 1 1.85535 25.8527 50.2207 -8.22397
590 1 3.59701 26.6318 52.7716 -8.8971
591 1 4.50733 26.6353 55.5095 -8.88558
592 1 5.4373 26.6435 58.1104 -8.91658
593 1 6.34631 26.6473 60.6784 -8.90142
594 1 7.25258 26.6487 63.2435 -8.90013
595 1 8.15914 26.6491 65.8079 -8.9
596 1 9.06567 26.6491 68.3721 -8.9
597 1 9.97216 26.6489 70.9361 -8.89997
598 1 3.05272 28.8694 55.1748 -8.7306
599 1 3.93442 28.8684 57.6976 -8.87037
600 1 4.83723 28.8688 60.253 -8.89895
601 1 5.74269 28.8691 62.8158 -8.89977
602 1 6.64879 28.8692 65.38 -8.89994
603 1 7.55511 28.8692 67.9444 -8.89997
604 1 8.46147 28.8691 70.5086 -8.89995
605 1 9.36788 28.8689 73.0727 -8.90001
606 1 4.22726 28.8766 51.0237 -8.22743
607 1 5.19641 28.8669 53.4649 -8.86034
608 1 6.04358 28.8674 56.0092 -8.90628
609 1 6.95446 28.8682 58.5497 -8.89465
610 1 7.85843 28.8688 61.1079 -8.89734
611 1 8.764 28.8691 63.6708 -8.89949
612 1 9.67021 28.8692 66.2349 -8.89993
613 1 10.5766 28.8692 68.7992 -8.89999
614 1 5.9452 26.5791 51.3531 -8.5343
615 1 6.63513 26.6494 53.9079 -8.55216
616 1 7.55618 26.6423 56.4148 -8.8671
617 1 8.46178 26.6455 58.9694 -8.89388
618 1 9.36746 26.6481 61.5341 -8.90079
619 1 10.2741 26.649 64.0986 -8.90012
620 1 7.28152 28.8654 51.4919 -8.6444
621 1 8.13228 28.8673 54.2618 -9.00318
622 1 9.07228 28.8667 56.8338 -8.90085
623 1 9.97377 28.868 59.3984 -8.90381
624 1 8.69077 26.7571 52.236 -8.34844
625 1 9.692 26.6382 54.708 -8.93915
626 1 10.5807 26.6438 57.2633 -8.89828
627 1 10.2897 28.8471 52.6992 -8.26949
628 1 3.32607 26.6463 59.8238 -8.89284
629 1 4.23164 26.6483 62.3879 -8.89924
630 1 5.13775 26.649 64.9527 -8.89998
631 1 6.04418 26.6491 67.5172 -8.90002
632 1 6.95066 26.6489 70.0814 -8.89994
633 1 7.85714 26.6486 72.6454 -8.9
634 1 2.7215 28.8691 61.9608 -8.89921
635 1 3.62753 28.8692 64.525 -8.89957
636 1 4.53372 28.8692 67.0895 -8.89992
637 1 5.44006 28.8691 69.6538 -8.90002
638 1 6.34641 28.8689 72.2181 -8.89999
639 1 3.02283 26.6491 66.6623 -8.89999
640 1 3.92921 26.649 69.2266 -8.89999
641 1 4.83566 26.6488 71.7907 -8.89998
642 1 3.32498 28.869 71.3633 -8.89995
643 1 2.72065 26.6486 73.5 -8.90001
644 1 3.62709 26.6486 76.0638 -8.89999
645 1 4.53353 26.6486 78.6276 -8.89998
646 1 5.43997 26.6486 81.1914 -8.89998
647 1 6.34641 26.6486 83.7552 -8.89998
648 1 7.25285 26.6486 86.319 -8.89998
649 1 8.15929 26.6486 88.8828 -8.89998
650 1 9.06573 26.6486 91.4466 -8.89998
651 1 9.97217 26.6486 94.0104 -8.89998
652 1 3.0228 28.8689 78.2003 -8.89998
653 1 3.92924 28.8689 80.7641 -8.89998
654 1 4.83568 28.8689 83.3279 -8.89998
655 1 5.74212 28.8689 85.8917 -8.89998
656 1 6.64856 28.8689 88.4555 -8.89998
657 1 7.555 28.8689 91.0193 -8.89998
658 1 8.46144 28.8689 93.5831 -8.89998
659 1 9.36788 28.8689 96.1469 -8.91055
660 1 4.23138 28.8689 73.9273 -8.89999
661 1 5.13782 28.8689 76.4911 -8.89999
662 1 6.04426 28.8689 79.0549 -8.89998
663 1 6.9507 28.8689 81.6187 -8.89998
664 1 7.85714 28.8689 84.1825 -8.89998
665 1 8.76358 28.8689 86.7463 -8.89998
666 1 9.67002 28.8689 89.3101 -8.89998
667 1 10.5765 28.8689 91.8739 -8.89998
668 1 5.74212 26.6486 74.3546 -8.90001
669 1 6.64856 26.6486 76.9184 -8.89998
670 1 7.555 26.6486 79.4822 -8.89998
671 1 8.46144 26.6486 82.046 -8.89998
672 1 9.36788 26.6486 84.6098 -8.89998
673 1 10.2743 26.6486 87.1736 -8.89998
674 1 7.25285 28.8689 74.7819 -8.90001
675 1 8.15929 28.8689 77.3457 -8.89998
676 1 9.06573 28.8689 79.9095 -8.89998
677 1 9.97217 28.8689 82.4733 -8.89998
678 1 8.76358 26.6486 75.2092 -8.9
679 1 9.67002 26.6486 77.773 -8.89998
680 1 10.5765 26.6486 80.3368 -8.89998
681 1 10.2743 28.8689 75.6365 -8.9
682 1 3.32494 26.6486 82.9006 -8.89998
683 1 4.23138 26.6486 85.4644 -8.89998
684 1 5.13782 26.6486 88.0282 -8.89998
685 1 6.04426 26.6486 90.592 -8.89998
686 1 6.9507 26.6486 93.1558 -8.89998
687 1 7.85714 26.6486 95.7196 -8.89999
688 1 2.72065 28.8689 85.0371 -8.89998
689 1 3.62709 28.8689 87.6009 -8.89998
690 1 4.53353 28.8689 90.1647 -8.89998
691 1 5.43997 28.8689 92.7285 -8.89998
692 1 6.34641 28.8689 95.2923 -8.89998
693 1 3.0228 26.6486 89.7374 -8.89998
694 1 3.92924 26.6486 92.3012 -8.89998
695 1 4.83568 26.6486 94.865 -8.89998
696 1 3.32494 28.8689 94.4377 -8.89998
697 1 2.72065 26.6486 96.5742 -8.91611
698 1 3.62709 26.6486 99.138 -7.83773
699 1 4.23138 28.8689 97.0015 -8.92667
700 1 5.13782 28.8689 99.5653 -7.85861
701 1 5.74212 26.6486 97.4288 -8.93195
702 1 6.64856 26.6486 99.9926 -7.60504
703 1 7.25285 28.8689 97.8561 -8.94308
704 1 8.15929 28.8689 100.42 -6.80401
705 1 8.76358 26.6486 98.2834 -8.6482
706 1 10.2743 28.8689 98.7107 -8.16469
707 1 1.85771 0.721413 50.244 -8.13667
708 1 3.60893 0.0225588 52.7905 -8.90419
709 1 4.51186 0.017543 55.5136 -8.89155
710 1 5.43838 0.00903674 58.1115 -8.91567
711 1 6.34741 0.00605845 60.678 -8.90132
712 1 7.2535 0.00509143 63.2426 -8.90001
713 1 8.15968 0.00486834 65.8072 -8.89996
714 1 9.06594 0.00484216 68.3716 -8.89999
715 1 9.97226 0.0048475 70.9359 -8.89994
716 1 3.03781 2.22988 55.111 -8.72177
717 1 3.92871 2.23036 57.6683 -8.88296
718 1 4.83618 2.22612 60.2457 -8.90382
719 1 5.74287 2.22495 62.8142 -8.90101
720 1 6.64912 2.22475 65.3796 -8.90021
721 1 7.55536 2.22481 67.9442 -8.90003
722 1 8.4616 2.22496 70.5086 -8.89995
723 1 9.36788 2.22514 73.0727 -8.89999
724 1 4.13337 2.18662 50.9288 -8.60434
725 1 5.18542 2.24642 53.3589 -8.904
726 1 6.03564 2.22892 55.9788 -8.89623
727 1 6.95202 2.22667 58.5384 -8.89729
728 1 7.85785 2.22525 61.1043 -8.89902
729 1 8.76415 2.22484 63.6697 -8.89996
730 1 9.67043 2.22481 66.2345 -8.90003
731 1 10.5767 2.2249 68.799 -8.90001
732 1 5.95832 0.0722135 51.3517 -8.54067
733 1 6.63984 31.0834 53.9083 -8.56035
734 1 7.55749 0.00864482 56.4163 -8.87105
735 1 8.46317 0.00675382 58.9692 -8.89399
736 1 9.36873 0.0053639 61.5328 -8.90026
737 1 10.2748 0.00494827 64.0974 -8.9001
738 1 7.5465 2.22437 51.3556 -8.80773
739 1 8.1172 2.22119 54.2182 -8.89483
740 1 9.06803 2.22907 56.813 -8.91295
741 1 9.97251 2.22582 59.3918 -8.90577
742 1 8.70053 30.9663 52.2379 -8.48311
743 1 9.69058 0.00881969 54.7109 -8.93177
744 1 10.5798 0.00673571 57.2638 -8.89329
745 1 10.2338 2.21407 52.6245 -8.70236
746 1 3.32679 0.00732919 59.8242 -8.89251
747 1 4.23244 0.00546011 62.3876 -8.89908
748 1 5.13839 0.00487543 64.9523 -8.8999
749 1 6.04458 0.00478628 67.5168 -8.9
750 1 6.95086 0.00480521 70.0812 -8.89988
751 1 7.85714 0.0048212 72.6454 -8.90002
752 1 2.7223 2.22512 61.9601 -8.90094
753 1 3.62799 2.2247 64.5251 -8.90006
754 1 4.53404 2.22471 67.0896 -8.90001
755 1 5.44025 2.22485 69.6539 -8.90003
756 1 6.34641 2.22514 72.2181 -8.89999
757 1 3.02323 0.00470608 66.6621 -8.89996
758 1 3.92946 0.00473054 69.2264 -8.89998
759 1 4.83576 0.00477867 71.7906 -8.89998
760 1 3.32507 2.22493 71.3633 -8.89998
761 1 2.72065 0.0048212 73.5 -8.90001
762 1 3.62709 0.0048212 76.0638 -8.89999
763 1 4.53353 0.0048212 78.6276 -8.89998
764 1 5.43997 0.0048212 81.1914 -8.89998
765 1 6.34641 0.0048212 83.7552 -8.89998
766 1 7.25285 0.0048212 86.319 -8.89998
767 1 8.15929 0.0048212 88.8828 -8.89998
768 1 9.06573 0.0048212 91.4466 -8.89998
769 1 9.97217 0.0048212 94.0104 -8.89998
770 1 3.0228 2.22514 78.2003 -8.89998
771 1 3.92924 2.22514 80.7641 -8.89998
772 1 4.83568 2.22514 83.3279 -8.89998
773 1 5.74212 2.22514 85.8917 -8.89998