ITEM: TIMESTEP
0
ITEM: NUMBER OF ATOMS
2356
ITEM: BOX BOUNDS pp pp ss
0.0000000000000000e+00 1.6315918607298830e+01
0.0000000000000000e+00 2.2203152929257598e+01
-1.0023913208077644e-02 1.0042870400780996e+02
ITEM: ATOMS id type x y z c_eng
1 1 0.616118 4.43118 53.1247 -8.26875
2 1 1.54691 4.43869 55.5948 -8.74199
3 1 2.42146 4.44313 58.1227 -8.87371
4 1 3.3249 4.44494 60.6802 -8.90016
5 1 4.23054 4.4456 63.2427 -8.90001
6 1 5.13668 4.44575 65.8066 -8.89998
7 1 6.04299 4.44576 68.3707 -8.89999
8 1 6.94937 4.44573 70.9348 -8.89997
9 1 0.0154127 6.67155 55.1461 -8.93635
10 1 0.906187 6.66952 57.6963 -8.89097
11 1 1.81314 6.66813 60.2534 -8.89227
12 1 2.71968 6.66653 62.8152 -8.8991
13 1 3.62592 6.66602 65.3792 -8.89987
14 1 4.53225 6.66592 67.9434 -8.89997
15 1 5.43864 6.66594 70.5074 -8.89996
16 1 6.34506 6.66599 73.0714 -8.9
17 1 0.355776 10.0082 50.636 -8.38258
18 1 2.08358 6.6702 53.2234 -8.90775
19 1 2.97535 6.67569 55.9591 -8.8697
20 1 3.92334 6.66947 58.5428 -8.91651
21 1 4.83427 6.66668 61.1062 -8.90071
22 1 5.7409 6.66604 63.6699 -8.8999
23 1 6.64728 6.66591 66.234 -8.89992
24 1 7.55367 6.66591 68.7981 -8.89998
25 1 0.223898 4.474 50.513 -8.00807
26 1 3.72737 4.43807 53.859 -8.84205
27 1 4.52856 4.44521 56.4357 -8.90533
28 1 5.44244 4.44405 58.974 -8.89589
29 1 6.34628 4.4451 61.5341 -8.89806
30 1 7.25188 4.44559 64.0973 -8.89961
31 1 4.41556 6.62954 51.7908 -8.52411
32 1 5.08805 6.69302 54.3576 -8.51171
33 1 6.04039 6.6672 56.8506 -8.85829
34 1 6.94958 6.66559 59.3987 -8.89177
35 1 7.20505 2.22635 52.5653 -8.70833
36 1 6.60139 4.45198 54.6505 -8.91346
37 1 7.55579 4.4394 57.2451 -8.90908
38 1 7.15036 6.75849 52.7155 -8.0011
39 1 0.303008 4.44414 59.8262 -8.90239
40 1 1.2092 4.44541 62.3885 -8.89943
41 1 2.11534 4.4457 64.952 -8.89963
42 1 3.0216 4.44576 67.516 -8.89993
43 1 3.92795 4.44574 70.0801 -8.89992
44 1 4.83433 4.44568 72.6441 -8.9
45 1 16.0145 6.66655 61.9615 -8.89954
46 1 0.604633 6.66605 64.5248 -8.8999
47 1 1.51088 6.66592 67.0888 -8.89994
48 1 2.41723 6.66593 69.6528 -8.89999
49 1 3.3236 6.66599 72.2168 -8.89998
50 1 0.000172884 4.44572 66.6614 -8.89991
51 1 0.906512 4.44574 69.2255 -8.89997
52 1 1.8129 4.44571 71.7894 -8.89998
53 1 0.302157 6.66594 71.3621 -8.89997
54 1 16.0138 4.44568 73.4987 -8.9
55 1 0.604276 4.44568 76.0625 -8.89998
56 1 1.51072 4.44568 78.6263 -8.89998
57 1 2.41716 4.44568 81.1901 -8.89998
58 1 3.3236 4.44568 83.7539 -8.89998
59 1 4.23004 4.44568 86.3177 -8.89998
60 1 5.13648 4.44568 88.8815 -8.89998
61 1 6.04292 4.44568 91.4453 -8.89998
62 1 6.94936 4.44568 94.0091 -8.89998
63 1 16.3159 6.66599 78.199 -8.89998
64 1 0.906422 6.66599 80.7628 -8.89998
65 1 1.81286 6.66599 83.3266 -8.89998
66 1 2.7193 6.66599 85.8904 -8.89998
67 1 3.62574 6.66599 88.4542 -8.89998
68 1 4.53218 6.66599 91.018 -8.89998
69 1 5.43862 6.66599 93.5818 -8.89998
70 1 6.34506 6.66599 96.1456 -8.91055
71 1 1.20857 6.66599 73.926 -8.89999
72 1 2.11501 6.66599 76.4898 -8.89998
73 1 3.02145 6.66599 79.0536 -8.89998
74 1 3.92789 6.66599 81.6174 -8.89998
75 1 4.83433 6.66599 84.1812 -8.89998
76 1 5.74077 6.66599 86.745 -8.89998
77 1 6.64721 6.66599 89.3088 -8.89998
78 1 7.55365 6.66599 91.8726 -8.89998
79 1 2.7193 4.44568 74.3533 -8.9
80 1 3.62574 4.44568 76.9171 -8.89998
81 1 4.53218 4.44568 79.4809 -8.89998
82 1 5.43862 4.44568 82.0447 -8.89998
83 1 6.34506 4.44568 84.6085 -8.89998
84 1 7.2515 4.44568 87.1723 -8.89998
85 1 4.23004 6.66599 74.7806 -8.9
86 1 5.13648 6.66599 77.3444 -8.89998
87 1 6.04292 6.66599 79.9082 -8.89998
88 1 6.94936 6.66599 82.472 -8.89998
89 1 5.74077 4.44568 75.2079 -8.89999
90 1 6.64721 4.44568 77.7717 -8.89998
91 1 7.55365 4.44568 80.3355 -8.89998
92 1 7.2515 6.66599 75.6352 -8.89999
93 1 0.302129 4.44568 82.8993 -8.89998
94 1 1.20857 4.44568 85.4631 -8.89998
95 1 2.11501 4.44568 88.0269 -8.89998
96 1 3.02145 4.44568 90.5907 -8.89998
97 1 3.92789 4.44568 93.1545 -8.89998
98 1 4.83433 4.44568 95.7183 -8.89999
99 1 16.0138 6.66599 85.0358 -8.89998
100 1 0.604276 6.66599 87.5996 -8.89998
101 1 1.51072 6.66599 90.1634 -8.89998
102 1 2.41716 6.66599 92.7272 -8.89998
103 1 3.3236 6.66599 95.291 -8.89998
104 1 16.3159 4.44568 89.7361 -8.89998
105 1 0.906422 4.44568 92.2999 -8.89998
106 1 1.81286 4.44568 94.8637 -8.89998
107 1 0.302129 6.66599 94.4364 -8.89998
108 1 16.0138 4.44568 96.5729 -8.91611
109 1 0.604276 4.44568 99.1367 -7.83773
110 1 1.20857 6.66599 97.0002 -8.92667
111 1 2.11501 6.66599 99.564 -7.85861
112 1 2.7193 4.44568 97.4275 -8.93195
113 1 3.62574 4.44568 99.9913 -7.60504
114 1 4.23004 6.66599 97.8548 -8.94308
115 1 5.13648 6.66599 100.419 -6.80401
116 1 5.74077 4.44568 98.2821 -8.6482
117 1 7.2515 6.66599 98.7094 -8.16469
118 1 14.1925 11.1146 49.5049 -8.80601
119 1 0.560467 8.87122 53.0549 -8.69644
120 1 1.51622 8.89298 55.5391 -8.72305
121 1 2.41115 8.89304 58.0988 -8.88558
122 1 3.32201 8.88785 60.674 -8.90343
123 1 4.22972 8.88632 63.2415 -8.90074
124 1 5.13639 8.88603 65.8065 -8.90018
125 1 6.04288 8.88606 68.3708 -8.90003
126 1 6.94934 8.88617 70.9348 -8.89998
127 1 0.015616 11.1187 55.0776 -8.92619
128 1 0.906322 11.108 57.6735 -8.89089
129 1 1.81228 11.1056 60.2473 -8.89465
130 1 2.71911 11.1057 62.8143 -8.90002
131 1 3.62562 11.106 65.3794 -8.90011
132 1 4.53212 11.1062 67.9436 -8.90004
133 1 5.4386 11.1064 70.5076 -8.89999
134 1 6.34506 11.1066 73.0714 -8.89999
135 1 0.35247 12.6291 50.5921 -8.13672
136 1 2.02946 11.1283 53.0731 -9.00322
137 1 2.99198 11.1054 55.9075 -8.87716
138 1 3.92193 11.1048 58.5307 -8.91804
139 1 4.83355 11.1056 61.1038 -8.90207
140 1 5.74037 11.1058 63.6698 -8.90035
141 1 6.64702 11.1061 66.2343 -8.90005
142 1 7.55356 11.1063 68.7983 -8.9
143 1 2.61958 8.83576 51.3691 -8.64592
144 1 3.65156 8.90719 53.802 -8.89657
145 1 4.51676 8.8913 56.4128 -8.90895
146 1 5.43726 8.88821 58.9693 -8.89447
147 1 6.34454 8.88655 61.5326 -8.89796
148 1 7.2513 8.88606 64.0971 -8.89974
149 1 4.4496 11.1598 51.7702 -8.56937
150 1 5.13667 11.0901 54.3227 -8.4874
151 1 6.04433 11.1054 56.8332 -8.86854
152 1 6.94906 11.1063 59.3928 -8.89521
153 1 5.80772 8.88237 51.8643 -8.52613
154 1 6.60956 8.88508 54.6792 -8.97237
155 1 7.55651 8.88948 57.2553 -8.90077
156 1 7.18767 11.0111 52.6262 -8.64144
157 1 0.302294 8.88951 59.8203 -8.90517
158 1 1.20879 8.88686 62.387 -8.90079
159 1 2.11512 8.88615 64.9518 -8.89999
160 1 3.02149 8.88606 67.5161 -8.90001
161 1 3.9279 8.88614 70.0802 -8.89996
162 1 4.83433 8.88631 72.6441 -8.9
163 1 16.0136 11.106 61.96 -8.90209
164 1 0.604247 11.106 64.525 -8.90048
165 1 1.5107 11.1062 67.0891 -8.90009
166 1 2.41715 11.1063 69.653 -8.9
167 1 3.3236 11.1066 72.2168 -8.89998
168 1 8.14112e-05 8.88607 66.6616 -8.9
169 1 0.906462 8.8861 69.2256 -8.89999
170 1 1.81288 8.88621 71.7895 -8.89998
171 1 0.302124 11.1065 71.3622 -8.89998
172 1 16.0138 8.88631 73.4987 -8.9
173 1 0.604276 8.88631 76.0625 -8.89998
174 1 1.51072 8.88631 78.6263 -8.89998
175 1 2.41716 8.88631 81.1901 -8.89998
176 1 3.3236 8.88631 83.7539 -8.89998
177 1 4.23004 8.88631 86.3177 -8.89998
178 1 5.13648 8.88631 88.8815 -8.89998
179 1 6.04292 8.88631 91.4453 -8.89998
180 1 6.94936 8.88631 94.0091 -8.89998
181 1 16.3159 11.1066 78.199 -8.89998
182 1 0.906422 11.1066 80.7628 -8.89998
183 1 1.81286 11.1066 83.3266 -8.89998
184 1 2.7193 11.1066 85.8904 -8.89998
185 1 3.62574 11.1066 88.4542 -8.89998
186 1 4.53218 11.1066 91.018 -8.89998
187 1 5.43862 11.1066 93.5818 -8.89998
188 1 6.34506 11.1066 96.1456 -8.91055
189 1 1.20857 11.1066 73.926 -8.89998
190 1 2.11501 11.1066 76.4898 -8.89998
191 1 3.02145 11.1066 79.0536 -8.89998
192 1 3.92789 11.1066 81.6174 -8.89998
193 1 4.83433 11.1066 84.1812 -8.89998
194 1 5.74077 11.1066 86.745 -8.89998
195 1 6.64721 11.1066 89.3088 -8.89998
196 1 7.55365 11.1066 91.8726 -8.89998
197 1 2.7193 8.88631 74.3533 -8.89999
198 1 3.62574 8.88631 76.9171 -8.89998
199 1 4.53218 8.88631 79.4809 -8.89998
200 1 5.43862 8.88631 82.0447 -8.89998
201 1 6.34506 8.88631 84.6085 -8.89998
202 1 7.2515 8.88631 87.1723 -8.89998
203 1 4.23004 11.1066 74.7806 -8.89998
204 1 5.13648 11.1066 77.3444 -8.89998
205 1 6.04292 11.1066 79.9082 -8.89998
206 1 6.94936 11.1066 82.472 -8.89998
207 1 5.74077 8.88631 75.2079 -8.89999
208 1 6.64721 8.88631 77.7717 -8.89998
209 1 7.55365 8.88631 80.3355 -8.89998
210 1 7.2515 11.1066 75.6352 -8.89998
211 1 0.302129 8.88631 82.8993 -8.89998
212 1 1.20857 8.88631 85.4631 -8.89998
213 1 2.11501 8.88631 88.0269 -8.89998
214 1 3.02145 8.88631 90.5907 -8.89998
215 1 3.92789 8.88631 93.1545 -8.89998
216 1 4.83433 8.88631 95.7183 -8.89999
217 1 16.0138 11.1066 85.0358 -8.89998
218 1 0.604276 11.1066 87.5996 -8.89998
219 1 1.51072 11.1066 90.1634 -8.89998
220 1 2.41716 11.1066 92.7272 -8.89998
221 1 3.3236 11.1066 95.291 -8.89998
222 1 16.3159 8.88631 89.7361 -8.89998
223 1 0.906422 8.88631 92.2999 -8.89998
224 1 1.81286 8.88631 94.8637 -8.89998
225 1 0.302129 11.1066 94.4364 -8.89998
226 1 16.0138 8.88631 96.5729 -8.91611
227 1 0.604276 8.88631 99.1367 -7.83773
228 1 1.20857 11.1066 97.0002 -8.92667
229 1 2.11501 11.1066 99.564 -7.85861
230 1 2.7193 8.88631 97.4275 -8.93195
231 1 3.62574 8.88631 99.9913 -7.60504
232 1 4.23004 11.1066 97.8548 -8.94308
233 1 5.13648 11.1066 100.419 -6.80401
234 1 5.74077 8.88631 98.2821 -8.6482
235 1 7.2515 11.1066 98.7094 -8.16469
236 1 0.58309 13.4178 53.0947 -8.54252
237 1 1.53633 13.331 55.5683 -8.72493
238 1 2.41845 13.3199 58.1098 -8.87577
239 1 3.32386 13.3239 60.6787 -8.9025
240 1 4.22989 13.3255 63.2437 -8.90045
241 1 5.13635 13.3263 65.8076 -8.90009
242 1 6.04285 13.3266 68.3713 -8.89998
243 1 6.94933 13.3268 70.935 -8.89999
244 1 0.0406095 15.5434 55.2156 -8.90689
245 1 0.921029 15.5446 57.7308 -8.88
246 1 1.81631 15.5459 60.2645 -8.88529
247 1 2.72019 15.5466 62.8201 -8.89788
248 1 3.62589 15.5469 65.3814 -8.89948
249 1 4.5322 15.5471 67.9444 -8.89987
250 1 5.43863 15.5472 70.5078 -8.89997
251 1 6.34506 15.5473 73.0714 -8.89994
252 1 0.346102 18.4945 50.6097 -8.18059
253 1 2.14912 15.5439 53.2815 -8.90345
254 1 3.02151 15.5442 55.9634 -8.90669
255 1 3.92939 15.5459 58.5498 -8.91958
256 1 4.83467 15.5462 61.1108 -8.90042
257 1 5.74074 15.5467 63.6727 -8.89987
258 1 6.64714 15.547 66.2355 -8.89984
259 1 7.5536 15.5471 68.7988 -8.89992
260 1 0.223903 15.5756 50.7603 -8.00807
261 1 2.70065 13.4225 51.4237 -8.32246
262 1 4.53132 13.3213 56.427 -8.89012
263 1 5.44135 13.3236 58.972 -8.89563
264 1 6.34478 13.325 61.535 -8.89863
265 1 7.25116 13.326 64.0985 -8.89984
266 1 4.47381 15.4907 51.771 -8.57427
267 1 3.7174 13.3093 53.8495 -8.86068
268 1 6.04908 15.5459 56.8467 -8.87951
269 1 6.9472 15.5452 59.4026 -8.89263
270 1 6.0431 13.3234 51.7723 -8.82005
271 1 6.60477 13.3236 54.6475 -8.89937
272 1 7.55606 13.3225 57.2396 -8.90839
273 1 7.19165 15.6483 52.6366 -8.62778
274 1 0.302106 13.3227 59.8265 -8.90772
275 1 1.20868 13.325 62.3901 -8.90005
276 1 2.11501 13.326 64.9534 -8.89983
277 1 3.02143 13.3265 67.5169 -8.89991
278 1 3.92788 13.3267 70.0805 -8.89999
279 1 4.83433 13.3269 72.6441 -8.89996
280 1 16.0137 15.5462 61.9659 -8.89945
281 1 0.604328 15.5468 64.5273 -8.89967
282 1 1.51074 15.547 67.0901 -8.89985
283 1 2.41716 15.5471 69.6534 -8.8999
284 1 3.3236 15.5473 72.2168 -8.89996
285 1 16.3158 13.3264 66.6624 -8.89995
286 1 0.906395 13.3266 69.226 -8.89997
287 1 1.81285 13.3268 71.7896 -8.89997
288 1 0.302126 15.5472 71.3624 -8.89999
289 1 16.0138 13.3269 73.4987 -8.89997
290 1 0.604276 13.3269 76.0625 -8.89998
291 1 1.51072 13.3269 78.6263 -8.89998
292 1 2.41716 13.3269 81.1901 -8.89998
293 1 3.3236 13.3269 83.7539 -8.89998
294 1 4.23004 13.3269 86.3177 -8.89998
295 1 5.13648 13.3269 88.8815 -8.89998
296 1 6.04292 13.3269 91.4453 -8.89998
297 1 6.94936 13.3269 94.0091 -8.89998
298 1 16.3159 15.5473 78.199 -8.89998
299 1 0.906422 15.5473 80.7628 -8.89998
300 1 1.81286 15.5473 83.3266 -8.89998
301 1 2.7193 15.5473 85.8904 -8.89998
302 1 3.62574 15.5473 88.4542 -8.89998
303 1 4.53218 15.5473 91.018 -8.89998
304 1 5.43862 15.5473 93.5818 -8.89998
305 1 6.34506 15.5473 96.1456 -8.91055
306 1 1.20857 15.5473 73.926 -8.89996
307 1 2.11501 15.5473 76.4898 -8.89997
308 1 3.02145 15.5473 79.0536 -8.89998
309 1 3.92789 15.5473 81.6174 -8.89998
310 1 4.83433 15.5473 84.1812 -8.89998
311 1 5.74077 15.5473 86.745 -8.89998
312 1 6.64721 15.5473 89.3088 -8.89998
313 1 7.55365 15.5473 91.8726 -8.89998
314 1 2.7193 13.3269 74.3533 -8.89997
315 1 3.62574 13.3269 76.9171 -8.89998
316 1 4.53218 13.3269 79.4809 -8.89998
317 1 5.43862 13.3269 82.0447 -8.89998
318 1 6.34506 13.3269 84.6085 -8.89998
319 1 7.2515 13.3269 87.1723 -8.89998
320 1 4.23004 15.5473 74.7806 -8.89997
321 1 5.13648 15.5473 77.3444 -8.89998
322 1 6.04292 15.5473 79.9082 -8.89998
323 1 6.94936 15.5473 82.472 -8.89998
324 1 5.74077 13.3269 75.2079 -8.89997
325 1 6.64721 13.3269 77.7717 -8.89998
326 1 7.55365 13.3269 80.3355 -8.89998
327 1 7.2515 15.5473 75.6352 -8.89997
328 1 0.302129 13.3269 82.8993 -8.89998
329 1 1.20857 13.3269 85.4631 -8.89998
330 1 2.11501 13.3269 88.0269 -8.89998
331 1 3.02145 13.3269 90.5907 -8.89998
332 1 3.92789 13.3269 93.1545 -8.89998
333 1 4.83433 13.3269 95.7183 -8.89999
334 1 16.0138 15.5473 85.0358 -8.89998
335 1 0.604276 15.5473 87.5996 -8.89998
336 1 1.51072 15.5473 90.1634 -8.89998
337 1 2.41716 15.5473 92.7272 -8.89998
338 1 3.3236 15.5473 95.291 -8.89998
339 1 16.3159 13.3269 89.7361 -8.89998
340 1 0.906422 13.3269 92.2999 -8.89998
341 1 1.81286 13.3269 94.8637 -8.89998
342 1 0.302129 15.5473 94.4364 -8.89998
343 1 16.0138 13.3269 96.5729 -8.91611
344 1 0.604276 13.3269 99.1367 -7.83773
345 1 1.20857 15.5473 97.0002 -8.92667
346 1 2.11501 15.5473 99.564 -7.85861
347 1 2.7193 13.3269 97.4275 -8.93195
348 1 3.62574 13.3269 99.9913 -7.60504
349 1 4.23004 15.5473 97.8548 -8.94308
350 1 5.13648 15.5473 100.419 -6.80401
351 1 5.74077 13.3269 98.2821 -8.6482
352 1 7.2515 15.5473 98.7094 -8.16469
353 1 0.355778 21.1098 50.6373 -8.38258
354 1 2.6774 17.6455 51.4352 -8.40902
355 1 1.52778 17.7593 55.5759 -8.72843
356 1 2.41617 17.7717 58.116 -8.88062
357 1 3.32361 17.7693 60.6819 -8.90207
358 1 4.22997 17.7683 63.2451 -8.90009
359 1 5.13646 17.7679 65.8082 -8.89996
360 1 6.04291 17.7677 68.3716 -8.89993
361 1 6.94935 17.7676 70.9351 -8.89998
362 1 0.0123209 19.9786 55.0844 -8.92957
363 1 0.903944 19.9893 57.6813 -8.88961
364 1 1.81265 19.9899 60.251 -8.89388
365 1 2.71946 19.9892 62.8159 -8.89977
366 1 3.62581 19.9886 65.3802 -8.90002
367 1 4.53222 19.9883 67.944 -8.9
368 1 5.43864 19.9881 70.5077 -8.89999
369 1 6.34506 19.9879 73.0714 -8.89996
370 1 0.35247 1.52752 50.6811 -8.13672
371 1 2.02399 19.9669 53.088 -9.00308
372 1 2.96869 19.9902 55.9341 -8.85797
373 1 3.92119 19.9911 58.538 -8.91705
374 1 4.83364 19.99 61.1067 -8.9013
375 1 5.74057 19.9891 63.6711 -8.9001
376 1 6.64715 19.9885 66.2349 -8.89995
377 1 7.55363 19.9882 68.7986 -8.89996
378 1 3.6841 17.7794 53.8637 -8.86021
379 1 5.14036 15.5596 54.3355 -8.56883
380 1 4.52589 17.7725 56.4321 -8.90178
381 1 5.43919 17.7695 58.9785 -8.89438
382 1 6.3445 17.7687 61.538 -8.89744
383 1 7.25125 17.7681 64.0997 -8.89933
384 1 2.61958 19.9373 49.9042 -8.64591
385 1 3.68326 22.1979 53.7883 -8.87458
386 1 6.04047 19.9928 56.8495 -8.85525
387 1 6.94901 19.9919 59.3995 -8.89191
388 1 5.8069 17.7785 51.882 -8.54688
389 1 6.61264 17.7745 54.6887 -8.98348
390 1 7.55571 17.7703 57.2637 -8.90031
391 1 5.09819 19.9898 54.3539 -8.46558
392 1 0.302785 17.7697 59.8312 -8.90746
393 1 1.20911 17.7686 62.3921 -8.89999
394 1 2.11523 17.768 64.9542 -8.89964
395 1 3.02153 17.7678 67.5172 -8.89984
396 1 3.92792 17.7677 70.0806 -8.89999
397 1 4.83433 17.7676 72.6441 -8.89995
398 1 16.0145 19.9893 61.9628 -8.90123
399 1 0.604598 19.9887 64.5262 -8.90028
400 1 1.51085 19.9884 67.0896 -8.90002
401 1 2.41721 19.9881 69.6532 -8.89996
402 1 3.3236 19.9879 72.2168 -8.89997
403 1 7.08866e-05 17.7678 66.663 -8.8998
404 1 0.906462 17.7677 69.2262 -8.89991
405 1 1.81287 17.7676 71.7897 -8.89996
406 1 0.302152 19.988 71.3623 -8.89999
407 1 16.0138 17.7676 73.4987 -8.89995
408 1 0.604276 17.7676 76.0625 -8.89998
409 1 1.51072 17.7676 78.6263 -8.89998
410 1 2.41716 17.7676 81.1901 -8.89998
411 1 3.3236 17.7676 83.7539 -8.89998
412 1 4.23004 17.7676 86.3177 -8.89998
413 1 5.13648 17.7676 88.8815 -8.89998
414 1 6.04292 17.7676 91.4453 -8.89998
415 1 6.94936 17.7676 94.0091 -8.89998
416 1 16.3159 19.9879 78.199 -8.89998
417 1 0.906422 19.9879 80.7628 -8.89998
418 1 1.81286 19.9879 83.3266 -8.89998
419 1 2.7193 19.9879 85.8904 -8.89998
420 1 3.62574 19.9879 88.4542 -8.89998
421 1 4.53218 19.9879 91.018 -8.89998
422 1 5.43862 19.9879 93.5818 -8.89998
423 1 6.34506 19.9879 96.1456 -8.91055
424 1 1.20857 19.9879 73.926 -8.89997
425 1 2.11501 19.9879 76.4898 -8.89998
426 1 3.02145 19.9879 79.0536 -8.89998
427 1 3.92789 19.9879 81.6174 -8.89998
428 1 4.83433 19.9879 84.1812 -8.89998
429 1 5.74077 19.9879 86.745 -8.89998
430 1 6.64721 19.9879 89.3088 -8.89998
431 1 7.55365 19.9879 91.8726 -8.89998
432 1 2.7193 17.7676 74.3533 -8.89996
433 1 3.62574 17.7676 76.9171 -8.89998
434 1 4.53218 17.7676 79.4809 -8.89998
435 1 5.43862 17.7676 82.0447 -8.89998
436 1 6.34506 17.7676 84.6085 -8.89998
437 1 7.2515 17.7676 87.1723 -8.89998
438 1 4.23004 19.9879 74.7806 -8.89997
439 1 5.13648 19.9879 77.3444 -8.89998
440 1 6.04292 19.9879 79.9082 -8.89998
441 1 6.94936 19.9879 82.472 -8.89998
442 1 5.74077 17.7676 75.2079 -8.89997
443 1 6.64721 17.7676 77.7717 -8.89998
444 1 7.55365 17.7676 80.3355 -8.89998
445 1 7.2515 19.9879 75.6352 -8.89998
446 1 0.302129 17.7676 82.8993 -8.89998
447 1 1.20857 17.7676 85.4631 -8.89998
448 1 2.11501 17.7676 88.0269 -8.89998
449 1 3.02145 17.7676 90.5907 -8.89998
450 1 3.92789 17.7676 93.1545 -8.89998
451 1 4.83433 17.7676 95.7183 -8.89999
452 1 16.0138 19.9879 85.0358 -8.89998
453 1 0.604276 19.9879 87.5996 -8.89998
454 1 1.51072 19.9879 90.1634 -8.89998
455 1 2.41716 19.9879 92.7272 -8.89998
456 1 3.3236 19.9879 95.291 -8.89998
457 1 16.3159 17.7676 89.7361 -8.89998
458 1 0.906422 17.7676 92.2999 -8.89998
459 1 1.81286 17.7676 94.8637 -8.89998
460 1 0.302129 19.9879 94.4364 -8.89998
461 1 16.0138 17.7676 96.5729 -8.91611
462 1 0.604276 17.7676 99.1367 -7.83773
463 1 1.20857 19.9879 97.0002 -8.92667
464 1 2.11501 19.9879 99.564 -7.85861
465 1 2.7193 17.7676 97.4275 -8.93195
466 1 3.62574 17.7676 99.9913 -7.60504
467 1 4.23004 19.9879 97.8548 -8.94308
468 1 5.13648 19.9879 100.419 -6.80401
469 1 5.74077 17.7676 98.2821 -8.6482
470 1 7.2515 19.9879 98.7094 -8.16469
471 1 0.573756 0.0214309 53.0578 -8.69078
472 1 1.52641 0.00776007 55.5401 -8.72169
473 1 2.4145 0.0032004 58.0978 -8.8828
474 1 3.32296 0.00549086 60.6743 -8.90377
475 1 4.23004 0.00576137 63.2419 -8.90092
476 1 5.13652 0.0056201 65.8069 -8.90022
477 1 6.04294 0.00542004 68.371 -8.90004
478 1 6.94936 0.00524246 70.9349 -8.89999
479 1 0.0259772 2.21604 55.1352 -8.93455
480 1 0.91384 2.22035 57.6879 -8.89684
481 1 1.81427 2.22315 60.2509 -8.89315
482 1 2.71985 2.22503 62.8148 -8.89962
483 1 3.62596 2.22557 65.3792 -8.89998
484 1 4.53228 2.2256 67.9435 -8.90001
485 1 5.43865 2.22552 70.5075 -8.89998
486 1 6.34506 2.22536 73.0714 -8.89999
487 1 14.195 8.8925 51.7805 -8.83741
488 1 2.11312 2.21128 53.2058 -8.8988
489 1 3.01571 2.21491 55.9265 -8.88892
490 1 3.92716 2.22201 58.5362 -8.92189
491 1 4.83518 2.22479 61.1048 -8.90178
492 1 5.7411 2.22555 63.6697 -8.90031
493 1 6.64734 2.22566 66.234 -8.90005
494 1 7.55369 2.22559 68.7982 -8.90001
495 1 2.70065 2.32095 49.8496 -8.32246
496 1 4.4105 20.0334 51.7934 -8.51557
497 1 4.5214 0.00392636 56.4155 -8.90675
498 1 5.43974 0.00674851 58.9681 -8.8956
499 1 6.34526 0.00648915 61.5327 -8.89864
500 1 7.25154 0.0059825 64.0974 -8.9
501 1 4.49405 2.21056 51.7603 -8.63929
502 1 5.15256 2.21729 54.324 -8.45903
503 1 6.05313 2.22287 56.8335 -8.86625
504 1 6.95139 2.22481 59.3921 -8.89686
505 1 6.02334 22.1655 51.725 -8.72865
506 1 6.60908 22.1989 54.6435 -8.90093
507 1 7.55636 0.011542 57.2417 -8.90784
508 1 8.749 22.1439 53.0796 -8.67635
509 1 0.3032 0.00474564 59.82 -8.90534
510 1 1.2091 0.00546814 62.3873 -8.9008
511 1 2.11525 0.00558466 64.9522 -8.90005
512 1 3.02155 0.00546061 67.5164 -8.90002
513 1 3.92793 0.005289 70.0803 -8.89998
514 1 4.83433 0.00504849 72.6441 -8.89999
515 1 16.0143 2.22477 61.96 -8.90067
516 1 0.604594 2.22548 64.5246 -8.90008
517 1 1.51088 2.22561 67.0888 -8.9
518 1 2.41723 2.22555 69.6528 -8.9
519 1 3.3236 2.22536 72.2168 -8.89998
520 1 0.000139031 0.00553009 66.6619 -8.90005
521 1 0.906495 0.00535668 69.2257 -8.9
522 1 1.81289 0.00518147 71.7895 -8.89999
523 1 0.30216 2.22549 71.3622 -8.89998
524 1 16.0138 0.00504849 73.4987 -8.89999
525 1 0.604276 0.00504849 76.0625 -8.89998
526 1 1.51072 0.00504849 78.6263 -8.89998
527 1 2.41716 0.00504849 81.1901 -8.89998
528 1 3.3236 0.00504849 83.7539 -8.89998
529 1 4.23004 0.00504849 86.3177 -8.89998
530 1 5.13648 0.00504849 88.8815 -8.89998
531 1 6.04292 0.00504849 91.4453 -8.89998
532 1 6.94936 0.00504849 94.0091 -8.89998
533 1 16.3159 2.22536 78.199 -8.89998
534 1 0.906422 2.22536 80.7628 -8.89998
535 1 1.81286 2.22536 83.3266 -8.89998
536 1 2.7193 2.22536 85.8904 -8.89998
537 1 3.62574 2.22536 88.4542 -8.89998
538 1 4.53218 2.22536 91.018 -8.89998
539 1 5.43862 2.22536 93.5818 -8.89998
540 1 6.34506 2.22536 96.1456 -8.91055
541 1 1.20857 2.22536 73.926 -8.89999
542 1 2.11501 2.22536 76.4898 -8.89998
543 1 3.02145 2.22536 79.0536 -8.89998
544 1 3.92789 2.22536 81.6174 -8.89998
545 1 4.83433 2.22536 84.1812 -8.89998
546 1 5.74077 2.22536 86.745 -8.89998
547 1 6.64721 2.22536 89.3088 -8.89998
548 1 7.55365 2.22536 91.8726 -8.89998
549 1 2.7193 0.00504849 74.3533 -8.89998
550 1 3.62574 0.00504849 76.9171 -8.89998
551 1 4.53218 0.00504849 79.4809 -8.89998
552 1 5.43862 0.00504849 82.0447 -8.89998
553 1 6.34506 0.00504849 84.6085 -8.89998
554 1 7.2515 0.00504849 87.1723 -8.89998
555 1 4.23004 2.22536 74.7806 -8.89999
556 1 5.13648 2.22536 77.3444 -8.89998
557 1 6.04292 2.22536 79.9082 -8.89998
558 1 6.94936 2.22536 82.472 -8.89998
559 1 5.74077 0.00504849 75.2079 -8.89998
560 1 6.64721 0.00504849 77.7717 -8.89998
561 1 7.55365 0.00504849 80.3355 -8.89998
562 1 7.2515 2.22536 75.6352 -8.89999
563 1 0.302129 0.00504849 82.8993 -8.89998
564 1 1.20857 0.00504849 85.4631 -8.89998
565 1 2.11501 0.00504849 88.0269 -8.89998
566 1 3.02145 0.00504849 90.5907 -8.89998
567 1 3.92789 0.00504849 93.1545 -8.89998
568 1 4.83433 0.00504849 95.7183 -8.89999
569 1 16.0138 2.22536 85.0358 -8.89998
570 1 0.604276 2.22536 87.5996 -8.89998
571 1 1.51072 2.22536 90.1634 -8.89998
572 1 2.41716 2.22536 92.7272 -8.89998
573 1 3.3236 2.22536 95.291 -8.89998
574 1 16.3159 0.00504849 89.7361 -8.89998
575 1 0.906422 0.00504849 92.2999 -8.89998
576 1 1.81286 0.00504849 94.8637 -8.89998
577 1 0.302129 2.22536 94.4364 -8.89998
578 1 16.0138 0.00504849 96.5729 -8.91611
579 1 0.604276 0.00504849 99.1367 -7.83773
580 1 1.20857 2.22536 97.0002 -8.92667
581 1 2.11501 2.22536 99.564 -7.85861
582 1 2.7193 0.00504849 97.4275 -8.93195
583 1 3.62574 0.00504849 99.9913 -7.60504
584 1 4.23004 2.22536 97.8548 -8.94308
585 1 5.13648 2.22536 100.419 -6.80401
586 1 5.74077 0.00504849 98.2821 -8.6482
587 1 7.2515 2.22536 98.7094 -8.16469
588 1 6.01622 4.48893 51.7304 -8.74554
589 1 8.73615 4.51555 53.0822 -8.68375
590 1 9.68305 4.44572 55.5617 -8.72289
591 1 10.5725 4.44001 58.1058 -8.8815
592 1 11.481 4.44393 60.6765 -8.90251
593 1 12.388 4.4453 63.2422 -8.90046
594 1 13.2945 4.44566 65.8067 -8.9001
595 1 14.2009 4.44573 68.3708 -8.90002
596 1 15.1073 4.44572 70.9348 -8.89997
597 1 8.1809 6.66321 55.1643 -8.94733
598 1 9.06813 6.66443 57.7013 -8.89345
599 1 9.97182 6.66486 60.2552 -8.89115
600 1 10.8776 6.66559 62.8159 -8.89877
601 1 11.7838 6.6658 65.3795 -8.8998
602 1 12.6902 6.66588 67.9435 -8.89997
603 1 13.5966 6.66593 70.5075 -8.89997
604 1 14.503 6.66599 73.0714 -8.9
605 1 2.6975 4.43208 51.4404 -8.15962
606 1 10.2918 6.66443 53.2587 -8.90066
607 1 11.1639 6.66193 55.9617 -8.88993
608 1 12.085 6.66461 58.5464 -8.91551
609 1 12.9929 6.66582 61.1078 -8.90065
610 1 13.8991 6.66588 63.6706 -8.89985
611 1 14.8053 6.66588 66.2343 -8.8999
612 1 15.7117 6.6659 68.7982 -8.89997
613 1 8.52093 0.938312 50.6418 -8.31328
614 1 11.8166 4.4249 53.8335 -8.88133
615 1 12.6826 4.43978 56.4227 -8.90859
616 1 13.5975 4.4432 58.9736 -8.89486
617 1 14.5035 4.44492 61.5344 -8.89761
618 1 15.4098 4.44556 64.0975 -8.89949
619 1 10.8126 4.5625 51.3932 -8.60902
620 1 13.2867 6.64651 54.352 -8.56323
621 1 14.2069 6.66646 56.8553 -8.86642
622 1 15.1089 6.66758 59.4008 -8.89174
623 1 13.9323 4.43583 51.907 -8.6192
624 1 14.7754 4.43932 54.6881 -8.99076
625 1 15.7167 4.44215 57.2613 -8.90104
626 1 15.3411 6.53911 52.6752 -8.41082
627 1 8.46057 4.44322 59.8212 -8.90541
628 1 9.36686 4.44498 62.3872 -8.9007
629 1 10.2731 4.44557 64.9518 -8.89993
630 1 11.1795 4.44572 67.516 -8.9
631 1 12.0859 4.44572 70.0801 -8.89995
632 1 12.9923 4.44568 72.6441 -8.90001
633 1 7.856 6.66569 61.9607 -8.89959
634 1 8.76233 6.6658 64.5246 -8.8999
635 1 9.6687 6.66586 67.0887 -8.89995
636 1 10.5751 6.66591 69.6528 -8.9
637 1 11.4816 6.66599 72.2168 -8.89999
638 1 8.15807 4.44573 66.6613 -8.89995
639 1 9.06442 4.44574 69.2254 -8.89999
640 1 9.97084 4.44571 71.7894 -8.89999
641 1 8.46009 6.66595 71.3621 -8.89996
642 1 7.8558 4.44568 73.4987 -8.9
643 1 8.76224 4.44568 76.0625 -8.89998
644 1 9.66868 4.44568 78.6263 -8.89998
645 1 10.5751 4.44568 81.1901 -8.89998
646 1 11.4816 4.44568 83.7539 -8.89998
647 1 12.388 4.44568 86.3177 -8.89998
648 1 13.2944 4.44568 88.8815 -8.89998
649 1 14.2009 4.44568 91.4453 -8.89998
650 1 15.1073 4.44568 94.0091 -8.89998
651 1 8.15794 6.66599 78.199 -8.89998
652 1 9.06438 6.66599 80.7628 -8.89998
653 1 9.97082 6.66599 83.3266 -8.89998
654 1 10.8773 6.66599 85.8904 -8.89998
655 1 11.7837 6.66599 88.4542 -8.89998
656 1 12.6901 6.66599 91.018 -8.89998
657 1 13.5966 6.66599 93.5818 -8.89998
658 1 14.503 6.66599 96.1456 -8.91055
659 1 9.36653 6.66599 73.926 -8.89999
660 1 10.273 6.66599 76.4898 -8.89998
661 1 11.1794 6.66599 79.0536 -8.89998
662 1 12.0858 6.66599 81.6174 -8.89998
663 1 12.9923 6.66599 84.1812 -8.89998
664 1 13.8987 6.66599 86.745 -8.89998
665 1 14.8052 6.66599 89.3088 -8.89998
666 1 15.7116 6.66599 91.8726 -8.89998
667 1 10.8773 4.44568 74.3533 -8.9
668 1 11.7837 4.44568 76.9171 -8.89998
669 1 12.6901 4.44568 79.4809 -8.89998
670 1 13.5966 4.44568 82.0447 -8.89998
671 1 14.503 4.44568 84.6085 -8.89998
672 1 15.4095 4.44568 87.1723 -8.89998
673 1 12.388 6.66599 74.7806 -8.89999
674 1 13.2944 6.66599 77.3444 -8.89998
675 1 14.2009 6.66599 79.9082 -8.89998
676 1 15.1073 6.66599 82.472 -8.89998
677 1 13.8987 4.44568 75.2079 -8.89999
678 1 14.8052 4.44568 77.7717 -8.89998
679 1 15.7116 4.44568 80.3355 -8.89998
680 1 15.4095 6.66599 75.6352 -8.89999
681 1 8.46009 4.44568 82.8993 -8.89998
682 1 9.36653 4.44568 85.4631 -8.89998
683 1 10.273 4.44568 88.0269 -8.89998
684 1 11.1794 4.44568 90.5907 -8.89998
685 1 12.0858 4.44568 93.1545 -8.89998
686 1 12.9923 4.44568 95.7183 -8.89999
687 1 7.8558 6.66599 85.0358 -8.89998
688 1 8.76224 6.66599 87.5996 -8.89998
689 1 9.66868 6.66599 90.1634 -8.89998
690 1 10.5751 6.66599 92.7272 -8.89998
691 1 11.4816 6.66599 95.291 -8.89998
692 1 8.15794 4.44568 89.7361 -8.89998
693 1 9.06438 4.44568 92.2999 -8.89998
694 1 9.97082 4.44568 94.8637 -8.89998
695 1 8.46009 6.66599 94.4364 -8.89998
696 1 7.8558 4.44568 96.5729 -8.91611
697 1 8.76224 4.44568 99.1367 -7.83773
698 1 9.36653 6.66599 97.0002 -8.92667
699 1 10.273 6.66599 99.564 -7.85861
700 1 10.8773 4.44568 97.4275 -8.93195
701 1 11.7837 4.44568 99.9913 -7.60504
702 1 12.388 6.66599 97.8548 -8.94308
703 1 13.2944 6.66599 100.419 -6.80401
704 1 13.8987 4.44568 98.2821 -8.6482
705 1 15.4095 6.66599 98.7094 -8.16469
706 1 8.76777 8.833 53.1262 -8.32525
707 1 9.70496 8.88492 55.5936 -8.72055
708 1 10.5802 8.89083 58.1211 -8.86911
709 1 11.4823 8.88773 60.6799 -8.9003
710 1 12.3881 8.88638 63.2432 -8.90024
711 1 13.2944 8.88608 65.8071 -8.90006
712 1 14.2009 8.88608 68.371 -8.90001
713 1 15.1073 8.88617 70.9349 -8.89998
714 1 8.18281 11.1025 55.1013 -8.92511
715 1 9.06755 11.1076 57.6796 -8.89536
716 1 9.96991 11.1074 60.2493 -8.89481
717 1 10.8766 11.1064 62.8151 -8.9001
718 1 11.7834 11.1062 65.3798 -8.90012
719 1 12.69 11.1063 67.9438 -8.90004
720 1 13.5965 11.1064 70.5076 -8.9
721 1 14.503 11.1066 73.0714 -8.89999
722 1 8.51494 3.52316 50.6416 -8.30277
723 1 10.2167 11.0884 53.1021 -8.95586
724 1 11.1596 11.1152 55.9056 -8.87918
725 1 12.0804 11.1094 58.5324 -8.92147
726 1 12.9915 11.1068 61.1054 -8.9029
727 1 13.8984 11.1062 63.6706 -8.90049
728 1 14.8051 11.1062 66.2346 -8.9001
729 1 15.7116 11.1063 68.7985 -8.90001
730 1 10.9142 8.83616 51.435 -8.19345
731 1 11.8865 8.90301 53.8715 -8.84716
732 1 12.6919 8.8915 56.4343 -8.89937
733 1 13.6009 8.88969 58.9747 -8.89625
734 1 14.504 8.88724 61.5348 -8.8982
735 1 15.4097 8.88628 64.0978 -8.89979
736 1 12.6403 11.1229 51.7602 -8.61284
737 1 13.3071 11.1196 54.3211 -8.43166
738 1 14.2043 11.1119 56.8328 -8.86399
739 1 15.1075 11.1072 59.393 -8.89736
740 1 12.6253 6.72868 51.7917 -8.51165
741 1 14.762 8.88963 54.6487 -8.89787
742 1 15.7148 8.89569 57.2422 -8.91109
743 1 15.3486 11.1836 52.5886 -8.67962
744 1 8.45997 8.88771 59.8239 -8.90365
745 1 9.36639 8.88644 62.3881 -8.89978
746 1 10.2729 8.88608 64.9522 -8.89979
747 1 11.1793 8.88605 67.5162 -8.89997
748 1 12.0858 8.88614 70.0802 -8.89996
749 1 12.9923 8.88631 72.6441 -8.89999
750 1 7.85511 11.106 61.9597 -8.90152
751 1 8.76186 11.106 64.5248 -8.9003
752 1 9.66849 11.1062 67.0891 -8.90005
753 1 10.575 11.1064 69.653 -8.9
754 1 11.4816 11.1066 72.2168 -8.89999
755 1 8.15785 8.88601 66.6614 -8.89999
756 1 9.06433 8.8861 69.2255 -8.89999
757 1 9.97081 8.88622 71.7895 -8.89999
758 1 8.46006 11.1065 71.3622 -8.89998
759 1 7.8558 8.88631 73.4987 -8.9
760 1 8.76224 8.88631 76.0625 -8.89998
761 1 9.66868 8.88631 78.6263 -8.89998
762 1 10.5751 8.88631 81.1901 -8.89998
763 1 11.4816 8.88631 83.7539 -8.89998
764 1 12.388 8.88631 86.3177 -8.89998
765 1 13.2944 8.88631 88.8815 -8.89998
766 1 14.2009 8.88631 91.4453 -8.89998
767 1 15.1073 8.88631 94.0091 -8.89998
768 1 8.15794 11.1066 78.199 -8.89998