ITEM: TIMESTEP
0
ITEM: NUMBER OF ATOMS
1413
ITEM: BOX BOUNDS pp pp ss
0.0000000000000000e+00 8.1579593036494149e+00
0.0000000000000000e+00 2.6643783515109121e+01
-1.0020183040813998e-02 1.0041593476056157e+02
ITEM: ATOMS id type x y z c_eng
1 1 1.58141 4.50034 50.5652 -8.31595
2 1 2.51873 4.44811 53.0297 -8.69853
3 1 3.40908 4.44661 55.5495 -8.87098
4 1 4.31963 4.45041 58.1036 -8.89845
5 1 5.22963 4.45237 60.6659 -8.89982
6 1 6.13843 4.45301 63.2298 -8.89989
7 1 7.04627 4.45311 65.7939 -8.89995
8 1 7.95352 4.45302 68.358 -8.89997
9 1 0.702514 4.45286 70.922 -8.89996
10 1 1.89331 6.67614 55.1246 -8.88635
11 1 2.80646 6.67436 57.6781 -8.89195
12 1 3.71766 6.67354 60.2383 -8.89876
13 1 4.6269 6.67334 62.802 -8.8997
14 1 5.53504 6.67325 65.3662 -8.89991
15 1 6.44251 6.67317 67.9304 -8.89995
16 1 7.3496 6.67308 70.4946 -8.89993
17 1 0.0985478 6.67294 73.0587 -8.90005
18 1 3.08688 6.69179 50.6656 -8.90519
19 1 3.96082 6.68011 53.3916 -8.86701
20 1 4.91378 6.67425 55.9687 -8.91486
21 1 5.82965 6.67339 58.5299 -8.89999
22 1 6.74015 6.6734 61.0928 -8.89946
23 1 7.64902 6.67331 63.6567 -8.89983
24 1 0.39895 6.67322 66.2209 -8.89994
25 1 1.30627 6.67314 68.7851 -8.89998
26 1 6.07203 6.66073 51.7893 -8.51802
27 1 5.50988 4.44477 53.8569 -8.9072
28 1 6.43191 4.44785 56.3991 -8.89351
29 1 7.34249 4.45143 58.9577 -8.89746
30 1 0.0941095 4.45273 61.5205 -8.89946
31 1 1.00251 4.45308 64.0844 -8.89988
32 1 4.6702 8.92063 51.2103 -8.84989
33 1 7.02697 6.67373 54.2795 -8.85802
34 1 7.94088 6.67372 56.8233 -8.89105
35 1 0.694708 6.67363 59.3839 -8.89928
36 1 7.58234 4.44449 52.114 -8.98054
37 1 0.384688 4.44464 54.6812 -8.90026
38 1 1.29518 4.44977 57.2488 -8.90171
39 1 0.999658 6.67871 52.5874 -8.9495
40 1 2.20699 4.45206 59.8114 -8.89979
41 1 3.11632 4.45289 62.375 -8.89968
42 1 4.02442 4.4531 64.9391 -8.8999
43 1 4.93183 4.45306 67.5033 -8.89997
44 1 5.83887 4.45291 70.0674 -8.89994
45 1 6.74577 4.45263 72.6314 -8.89996
46 1 1.6046 6.67336 61.9473 -8.89988
47 1 2.5131 6.67326 64.5114 -8.8999
48 1 3.42076 6.67319 67.0757 -8.89996
49 1 4.32796 6.67311 69.6399 -8.90001
50 1 5.23504 6.67294 72.2041 -8.89996
51 1 1.9101 4.45309 66.6486 -8.89995
52 1 2.81723 4.45298 69.2127 -8.89998
53 1 3.72412 4.45279 71.7767 -8.89995
54 1 2.21328 6.67305 71.3493 -8.89988
55 1 1.60928 4.45263 73.486 -8.90002
56 1 2.51572 4.45263 76.0498 -8.89999
57 1 3.42216 4.45263 78.6136 -8.89998
58 1 4.3286 4.45263 81.1774 -8.89998
59 1 5.23504 4.45263 83.7412 -8.89998
60 1 6.14148 4.45263 86.305 -8.89998
61 1 7.04792 4.45263 88.8688 -8.89998
62 1 7.95436 4.45263 91.4326 -8.89998
63 1 0.702841 4.45263 93.9964 -8.89998
64 1 1.91143 6.67294 78.1863 -8.89998
65 1 2.81787 6.67294 80.7501 -8.89998
66 1 3.72431 6.67294 83.3139 -8.89998
67 1 4.63075 6.67294 85.8777 -8.89998
68 1 5.53719 6.67294 88.4415 -8.89998
69 1 6.44363 6.67294 91.0053 -8.89998
70 1 7.35007 6.67294 93.5691 -8.89998
71 1 0.0985478 6.67294 96.1329 -8.91055
72 1 3.12001 6.67294 73.9133 -8.90004
73 1 4.02645 6.67294 76.4771 -8.89999
74 1 4.93289 6.67294 79.0409 -8.89998
75 1 5.83933 6.67294 81.6047 -8.89998
76 1 6.74577 6.67294 84.1685 -8.89998
77 1 7.65221 6.67294 86.7323 -8.89998
78 1 0.400694 6.67294 89.2961 -8.89998
79 1 1.30713 6.67294 91.8599 -8.89998
80 1 4.63075 4.45263 74.3406 -8.90001
81 1 5.53719 4.45263 76.9044 -8.89998
82 1 6.44363 4.45263 79.4682 -8.89998
83 1 7.35007 4.45263 82.032 -8.89998
84 1 0.0985478 4.45263 84.5958 -8.89998
85 1 1.00499 4.45263 87.1596 -8.89998
86 1 6.14148 6.67294 74.7679 -8.9
87 1 7.04792 6.67294 77.3317 -8.89998
88 1 7.95436 6.67294 79.8955 -8.89998
89 1 0.702841 6.67294 82.4593 -8.89998
90 1 7.65221 4.45263 75.1952 -8.9
91 1 0.400694 4.45263 77.759 -8.89998
92 1 1.30713 4.45263 80.3228 -8.89998
93 1 1.00499 6.67294 75.6225 -8.89999
94 1 2.21357 4.45263 82.8866 -8.89998
95 1 3.12001 4.45263 85.4504 -8.89998
96 1 4.02645 4.45263 88.0142 -8.89998
97 1 4.93289 4.45263 90.578 -8.89998
98 1 5.83933 4.45263 93.1418 -8.89998
99 1 6.74577 4.45263 95.7056 -8.89999
100 1 1.60928 6.67294 85.0231 -8.89998
101 1 2.51572 6.67294 87.5869 -8.89998
102 1 3.42216 6.67294 90.1507 -8.89998
103 1 4.3286 6.67294 92.7145 -8.89998
104 1 5.23504 6.67294 95.2783 -8.89998
105 1 1.91143 4.45263 89.7234 -8.89998
106 1 2.81787 4.45263 92.2872 -8.89998
107 1 3.72431 4.45263 94.851 -8.89998
108 1 2.21357 6.67294 94.4237 -8.89998
109 1 1.60928 4.45263 96.5602 -8.91611
110 1 2.51572 4.45263 99.124 -7.83773
111 1 3.12001 6.67294 96.9875 -8.92667
112 1 4.02645 6.67294 99.5513 -7.85861
113 1 4.63075 4.45263 97.4148 -8.93195
114 1 5.53719 4.45263 99.9786 -7.60504
115 1 6.14148 6.67294 97.8421 -8.94308
116 1 7.04792 6.67294 100.406 -6.80401
117 1 7.65221 4.45263 98.2694 -8.6482
118 1 1.00499 6.67294 98.6967 -8.16469
119 1 1.53641 8.85024 50.4846 -8.68116
120 1 2.51139 8.89981 52.9586 -8.73321
121 1 3.40227 8.89814 55.5229 -8.8826
122 1 4.31804 8.89455 58.0971 -8.90506
123 1 5.22929 8.89382 60.6637 -8.90022
124 1 6.13822 8.89343 63.2287 -8.89987
125 1 7.04614 8.89328 65.7933 -8.89995
126 1 7.95345 8.89323 68.3577 -8.89998
127 1 0.702484 8.89324 70.9219 -8.89995
128 1 1.90072 11.1101 55.0891 -8.88903
129 1 2.80854 11.1112 57.6694 -8.89749
130 1 3.72011 11.1129 60.2358 -8.89965
131 1 4.62837 11.1131 62.8014 -8.90042
132 1 5.53591 11.1132 65.3661 -8.90004
133 1 6.44297 11.1133 67.9304 -8.89998
134 1 7.34979 11.1134 70.4946 -8.89994
135 1 0.0985478 11.1136 73.0587 -8.90004
136 1 3.03475 11.1475 50.5105 -9.00624
137 1 3.99605 11.103 53.3232 -8.81956
138 1 4.91707 11.1069 55.9549 -8.92859
139 1 5.83361 11.1136 58.5242 -8.895
140 1 6.74202 11.1136 61.0907 -8.89867
141 1 7.65017 11.1133 63.6561 -8.89998
142 1 0.399623 11.1132 66.2208 -8.90002
143 1 1.30662 11.1133 68.7851 -8.90001
144 1 6.12316 11.1083 51.7305 -8.38499
145 1 5.5046 8.8951 53.84 -8.90542
146 1 6.43172 8.89527 56.3908 -8.89395
147 1 7.34188 8.89462 58.9541 -8.89777
148 1 0.0936579 8.8937 61.519 -8.90009
149 1 1.00229 8.89334 64.0837 -8.90008
150 1 0.0152834 11.1312 50.0134 -8.65127
151 1 7.03554 11.1105 54.245 -8.90309
152 1 7.94583 11.1148 56.8093 -8.89341
153 1 0.696441 11.1133 59.3803 -8.90518
154 1 7.57569 8.88687 52.071 -8.89737
155 1 0.38491 8.89835 54.6646 -8.9097
156 1 1.29492 8.89639 57.242 -8.90443
157 1 1.00208 11.1067 52.4971 -8.89303
158 1 2.20652 8.89404 59.8091 -8.90118
159 1 3.11609 8.89346 62.374 -8.89986
160 1 4.02428 8.89328 64.9385 -8.89998
161 1 4.93176 8.89323 67.503 -8.89999
162 1 5.83883 8.89323 70.0672 -8.89992
163 1 6.74577 8.89326 72.6314 -8.89997
164 1 1.60614 11.1131 61.9465 -8.90113
165 1 2.51408 11.1131 64.5113 -8.90019
166 1 3.42132 11.1132 67.0757 -8.90002
167 1 4.32823 11.1133 69.6399 -8.90002
168 1 5.23504 11.1136 72.2041 -8.89997
169 1 1.90999 8.89324 66.6482 -8.90002
170 1 2.81718 8.89322 69.2125 -8.89999
171 1 3.72411 8.89323 71.7766 -8.89995
172 1 2.2134 11.1134 71.3493 -8.89992
173 1 1.60928 8.89326 73.486 -8.90003
174 1 2.51572 8.89326 76.0498 -8.89999
175 1 3.42216 8.89326 78.6136 -8.89998
176 1 4.3286 8.89326 81.1774 -8.89998
177 1 5.23504 8.89326 83.7412 -8.89998
178 1 6.14148 8.89326 86.305 -8.89998
179 1 7.04792 8.89326 88.8688 -8.89998
180 1 7.95436 8.89326 91.4326 -8.89998
181 1 0.702841 8.89326 93.9964 -8.89998
182 1 1.91143 11.1136 78.1863 -8.89998
183 1 2.81787 11.1136 80.7501 -8.89998
184 1 3.72431 11.1136 83.3139 -8.89998
185 1 4.63075 11.1136 85.8777 -8.89998
186 1 5.53719 11.1136 88.4415 -8.89998
187 1 6.44363 11.1136 91.0053 -8.89998
188 1 7.35007 11.1136 93.5691 -8.89998
189 1 0.0985478 11.1136 96.1329 -8.91055
190 1 3.12001 11.1136 73.9133 -8.90002
191 1 4.02645 11.1136 76.4771 -8.89999
192 1 4.93289 11.1136 79.0409 -8.89998
193 1 5.83933 11.1136 81.6047 -8.89998
194 1 6.74577 11.1136 84.1685 -8.89998
195 1 7.65221 11.1136 86.7323 -8.89998
196 1 0.400694 11.1136 89.2961 -8.89998
197 1 1.30713 11.1136 91.8599 -8.89998
198 1 4.63075 8.89326 74.3406 -8.90003
199 1 5.53719 8.89326 76.9044 -8.89998
200 1 6.44363 8.89326 79.4682 -8.89998
201 1 7.35007 8.89326 82.032 -8.89998
202 1 0.0985478 8.89326 84.5958 -8.89998
203 1 1.00499 8.89326 87.1596 -8.89998
204 1 6.14148 11.1136 74.7679 -8.9
205 1 7.04792 11.1136 77.3317 -8.89998
206 1 7.95436 11.1136 79.8955 -8.89998
207 1 0.702841 11.1136 82.4593 -8.89998
208 1 7.65221 8.89326 75.1952 -8.90001
209 1 0.400694 8.89326 77.759 -8.89998
210 1 1.30713 8.89326 80.3228 -8.89998
211 1 1.00499 11.1136 75.6225 -8.89999
212 1 2.21357 8.89326 82.8866 -8.89998
213 1 3.12001 8.89326 85.4504 -8.89998
214 1 4.02645 8.89326 88.0142 -8.89998
215 1 4.93289 8.89326 90.578 -8.89998
216 1 5.83933 8.89326 93.1418 -8.89998
217 1 6.74577 8.89326 95.7056 -8.89999
218 1 1.60928 11.1136 85.0231 -8.89998
219 1 2.51572 11.1136 87.5869 -8.89998
220 1 3.42216 11.1136 90.1507 -8.89998
221 1 4.3286 11.1136 92.7145 -8.89998
222 1 5.23504 11.1136 95.2783 -8.89998
223 1 1.91143 8.89326 89.7234 -8.89998
224 1 2.81787 8.89326 92.2872 -8.89998
225 1 3.72431 8.89326 94.851 -8.89998
226 1 2.21357 11.1136 94.4237 -8.89998
227 1 1.60928 8.89326 96.5602 -8.91611
228 1 2.51572 8.89326 99.124 -7.83773
229 1 3.12001 11.1136 96.9875 -8.92667
230 1 4.02645 11.1136 99.5513 -7.85861
231 1 4.63075 8.89326 97.4148 -8.93195
232 1 5.53719 8.89326 99.9786 -7.60504
233 1 6.14148 11.1136 97.8421 -8.94308
234 1 7.04792 11.1136 100.406 -6.80401
235 1 7.65221 8.89326 98.2694 -8.6482
236 1 1.00499 11.1136 98.6967 -8.16469
237 1 7.74484 15.4783 50.6406 -8.13237
238 1 2.52028 13.281 52.9349 -8.67895
239 1 3.40669 13.3143 55.5388 -8.93314
240 1 4.3284 13.3305 58.0997 -8.90345
241 1 5.23431 13.3325 60.6656 -8.90137
242 1 6.14111 13.3331 63.2298 -8.89975
243 1 7.04773 13.3333 65.7939 -8.89986
244 1 7.95426 13.3334 68.358 -8.89997
245 1 0.7028 13.3336 70.922 -8.89997
246 1 1.90299 15.5375 55.2114 -8.61597
247 1 2.82691 15.5548 57.7081 -8.86265
248 1 3.72834 15.5541 60.2448 -8.89128
249 1 4.63287 15.5536 62.8046 -8.89947
250 1 5.53822 15.5535 65.3675 -8.8999
251 1 6.44413 15.5536 67.9311 -8.89998
252 1 7.35027 15.5539 70.4949 -8.89999
253 1 0.0985478 15.5542 73.0587 -8.89996
254 1 2.93092 15.5735 50.5559 -8.67144
255 1 3.94937 15.4409 53.5288 -8.56006
256 1 4.95645 15.5532 55.9899 -8.92616
257 1 5.84468 15.5545 58.5361 -8.89049
258 1 6.74856 15.5541 61.0949 -8.89371
259 1 7.65365 15.5535 63.6579 -8.89952
260 1 0.401437 15.5535 66.2218 -8.89994
261 1 1.3075 15.5537 68.7857 -8.89999
262 1 4.79717 13.4684 51.239 -8.70966
263 1 5.50697 13.2958 53.8712 -8.62187
264 1 6.44593 13.338 56.3802 -8.84734
265 1 7.34665 13.3347 58.9506 -8.89484
266 1 0.0970869 13.3332 61.5191 -8.90086
267 1 1.00447 13.3332 64.0843 -8.90022
268 1 5.42733 16.2738 51.5727 -8.27189
269 1 7.03546 15.5615 54.0837 -8.90128
270 1 7.92671 15.5592 56.7989 -8.88595
271 1 0.702184 15.5538 59.3839 -8.9082
272 1 7.55918 13.3161 52.1525 -8.63694
273 1 0.404998 13.3413 54.6625 -8.89697
274 1 1.29764 13.328 57.2508 -8.91215
275 1 1.24136 15.5944 52.6567 -8.61515
276 1 2.21159 13.3314 59.8128 -8.90111
277 1 3.11935 13.3327 62.3757 -8.89908
278 1 4.0262 13.3331 64.9394 -8.89987
279 1 4.93278 13.3333 67.5034 -8.89997
280 1 5.83929 13.3336 70.0674 -8.89995
281 1 6.74577 13.3339 72.6314 -8.89999
282 1 1.61073 15.5535 61.9492 -8.9011
283 1 2.51676 15.5534 64.5129 -8.90014
284 1 3.42275 15.5536 67.0766 -8.90002
285 1 4.32888 15.5538 69.6403 -8.89998
286 1 5.23504 15.5542 72.2041 -8.89999
287 1 1.91122 13.3333 66.6486 -8.90005
288 1 2.81779 13.3335 69.2127 -8.90001
289 1 3.72429 13.3337 71.7767 -8.89998
290 1 2.2137 15.5539 71.3495 -8.90002
291 1 1.60928 13.3339 73.486 -8.9
292 1 2.51572 13.3339 76.0498 -8.89998
293 1 3.42216 13.3339 78.6136 -8.89998
294 1 4.3286 13.3339 81.1774 -8.89998
295 1 5.23504 13.3339 83.7412 -8.89998
296 1 6.14148 13.3339 86.305 -8.89998
297 1 7.04792 13.3339 88.8688 -8.89998
298 1 7.95436 13.3339 91.4326 -8.89998
299 1 0.702841 13.3339 93.9964 -8.89998
300 1 1.91143 15.5542 78.1863 -8.89998
301 1 2.81787 15.5542 80.7501 -8.89998
302 1 3.72431 15.5542 83.3139 -8.89998
303 1 4.63075 15.5542 85.8777 -8.89998
304 1 5.53719 15.5542 88.4415 -8.89998
305 1 6.44363 15.5542 91.0053 -8.89998
306 1 7.35007 15.5542 93.5691 -8.89998
307 1 0.0985478 15.5542 96.1329 -8.91055
308 1 3.12001 15.5542 73.9133 -8.89996
309 1 4.02645 15.5542 76.4771 -8.89998
310 1 4.93289 15.5542 79.0409 -8.89998
311 1 5.83933 15.5542 81.6047 -8.89998
312 1 6.74577 15.5542 84.1685 -8.89998
313 1 7.65221 15.5542 86.7323 -8.89998
314 1 0.400694 15.5542 89.2961 -8.89998
315 1 1.30713 15.5542 91.8599 -8.89998
316 1 4.63075 13.3339 74.3406 -8.9
317 1 5.53719 13.3339 76.9044 -8.89998
318 1 6.44363 13.3339 79.4682 -8.89998
319 1 7.35007 13.3339 82.032 -8.89998
320 1 0.0985478 13.3339 84.5958 -8.89998
321 1 1.00499 13.3339 87.1596 -8.89998
322 1 6.14148 15.5542 74.7679 -8.89998
323 1 7.04792 15.5542 77.3317 -8.89998
324 1 7.95436 15.5542 79.8955 -8.89998
325 1 0.702841 15.5542 82.4593 -8.89998
326 1 7.65221 13.3339 75.1952 -8.89999
327 1 0.400694 13.3339 77.759 -8.89998
328 1 1.30713 13.3339 80.3228 -8.89998
329 1 1.00499 15.5542 75.6225 -8.89998
330 1 2.21357 13.3339 82.8866 -8.89998
331 1 3.12001 13.3339 85.4504 -8.89998
332 1 4.02645 13.3339 88.0142 -8.89998
333 1 4.93289 13.3339 90.578 -8.89998
334 1 5.83933 13.3339 93.1418 -8.89998
335 1 6.74577 13.3339 95.7056 -8.89999
336 1 1.60928 15.5542 85.0231 -8.89998
337 1 2.51572 15.5542 87.5869 -8.89998
338 1 3.42216 15.5542 90.1507 -8.89998
339 1 4.3286 15.5542 92.7145 -8.89998
340 1 5.23504 15.5542 95.2783 -8.89998
341 1 1.91143 13.3339 89.7234 -8.89998
342 1 2.81787 13.3339 92.2872 -8.89998
343 1 3.72431 13.3339 94.851 -8.89998
344 1 2.21357 15.5542 94.4237 -8.89998
345 1 1.60928 13.3339 96.5602 -8.91611
346 1 2.51572 13.3339 99.124 -7.83773
347 1 3.12001 15.5542 96.9875 -8.92667
348 1 4.02645 15.5542 99.5513 -7.85861
349 1 4.63075 13.3339 97.4148 -8.93195
350 1 5.53719 13.3339 99.9786 -7.60504
351 1 6.14148 15.5542 97.8421 -8.94308
352 1 7.04792 15.5542 100.406 -6.80401
353 1 7.65221 13.3339 98.2694 -8.6482
354 1 1.00499 15.5542 98.6967 -8.16469
355 1 2.85619 17.752 52.6844 -8.79236
356 1 3.41041 17.7694 55.5086 -8.90797
357 1 4.34262 17.7793 58.0935 -8.90659
358 1 5.24137 17.775 60.6667 -8.90479
359 1 6.14474 17.7739 63.2315 -8.90075
360 1 7.04962 17.7739 65.7952 -8.90003
361 1 7.95521 17.7741 68.3588 -8.89998
362 1 0.703168 17.7743 70.9223 -8.9
363 1 1.95199 20.0005 55.1819 -8.54426
364 1 2.83779 19.9916 57.6946 -8.87165
365 1 3.7333 19.9939 60.2437 -8.89461
366 1 4.63525 19.9942 62.8058 -8.89998
367 1 5.53953 19.9944 65.3687 -8.89995
368 1 6.44481 19.9946 67.9318 -8.89998
369 1 7.35056 19.9947 70.4952 -8.90002
370 1 0.0985478 19.9948 73.0587 -8.89989
371 1 2.97108 19.9499 50.4765 -8.70698
372 1 4.01095 20.0431 53.4577 -8.73142
373 1 4.97667 20.0014 55.9457 -8.94371
374 1 5.85489 19.9928 58.5305 -8.90262
375 1 6.75262 19.993 61.0969 -8.898
376 1 7.65579 19.994 63.6599 -8.89972
377 1 0.402552 19.9944 66.223 -8.89993
378 1 1.30804 19.9946 68.7863 -8.89995
379 1 5.38177 18.8997 51.5127 -8.36084
380 1 5.53082 17.7575 53.9113 -8.7059
381 1 6.4732 17.7778 56.3976 -8.72532
382 1 7.35691 17.7778 58.9473 -8.88504
383 1 0.102331 17.7743 61.5202 -8.90143
384 1 1.00729 17.7738 64.0858 -8.9005
385 1 5.29837 21.5235 51.4996 -8.20138
386 1 6.99971 20.0088 53.9345 -8.99333
387 1 7.95061 19.9889 56.7593 -8.88559
388 1 0.708606 19.9927 59.3808 -8.91244
389 1 7.64794 17.7291 52.2082 -8.60968
390 1 0.47305 17.7878 54.661 -8.89697
391 1 1.31318 17.7757 57.2611 -8.90161
392 1 1.28922 19.934 52.6308 -8.58097
393 1 2.22088 17.7751 59.8168 -8.90304
394 1 3.12391 17.7741 62.3783 -8.89898
395 1 4.02854 17.7739 64.9411 -8.89991
396 1 4.93397 17.774 67.5043 -8.89994
397 1 5.83981 17.7742 70.0678 -8.90001
398 1 6.74577 17.7745 72.6314 -8.89999
399 1 1.61437 19.994 61.9508 -8.90236
400 1 2.51853 19.9944 64.5143 -8.90027
401 1 3.42364 19.9945 67.0775 -8.90001
402 1 4.32927 19.9947 69.6407 -8.89993
403 1 5.23504 19.9948 72.2041 -8.89999
404 1 1.91271 17.7739 66.6497 -8.90007
405 1 2.81849 17.7741 69.2133 -8.9
406 1 3.72449 17.7743 71.7769 -8.90001
407 1 2.21388 19.9947 71.3497 -8.90008
408 1 1.60928 17.7745 73.486 -8.89994
409 1 2.51572 17.7745 76.0498 -8.89997
410 1 3.42216 17.7745 78.6136 -8.89998
411 1 4.3286 17.7745 81.1774 -8.89998
412 1 5.23504 17.7745 83.7412 -8.89998
413 1 6.14148 17.7745 86.305 -8.89998
414 1 7.04792 17.7745 88.8688 -8.89998
415 1 7.95436 17.7745 91.4326 -8.89998
416 1 0.702841 17.7745 93.9964 -8.89998
417 1 1.91143 19.9948 78.1863 -8.89998
418 1 2.81787 19.9948 80.7501 -8.89998
419 1 3.72431 19.9948 83.3139 -8.89998
420 1 4.63075 19.9948 85.8777 -8.89998
421 1 5.53719 19.9948 88.4415 -8.89998
422 1 6.44363 19.9948 91.0053 -8.89998
423 1 7.35007 19.9948 93.5691 -8.89998
424 1 0.0985478 19.9948 96.1329 -8.91055
425 1 3.12001 19.9948 73.9133 -8.89992
426 1 4.02645 19.9948 76.4771 -8.89997
427 1 4.93289 19.9948 79.0409 -8.89998
428 1 5.83933 19.9948 81.6047 -8.89998
429 1 6.74577 19.9948 84.1685 -8.89998
430 1 7.65221 19.9948 86.7323 -8.89998
431 1 0.400694 19.9948 89.2961 -8.89998
432 1 1.30713 19.9948 91.8599 -8.89998
433 1 4.63075 17.7745 74.3406 -8.89995
434 1 5.53719 17.7745 76.9044 -8.89998
435 1 6.44363 17.7745 79.4682 -8.89998
436 1 7.35007 17.7745 82.032 -8.89998
437 1 0.0985478 17.7745 84.5958 -8.89998
438 1 1.00499 17.7745 87.1596 -8.89998
439 1 6.14148 19.9948 74.7679 -8.89996
440 1 7.04792 19.9948 77.3317 -8.89998
441 1 7.95436 19.9948 79.8955 -8.89998
442 1 0.702841 19.9948 82.4593 -8.89998
443 1 7.65221 17.7745 75.1952 -8.89996
444 1 0.400694 17.7745 77.759 -8.89998
445 1 1.30713 17.7745 80.3228 -8.89998
446 1 1.00499 19.9948 75.6225 -8.89997
447 1 2.21357 17.7745 82.8866 -8.89998
448 1 3.12001 17.7745 85.4504 -8.89998
449 1 4.02645 17.7745 88.0142 -8.89998
450 1 4.93289 17.7745 90.578 -8.89998
451 1 5.83933 17.7745 93.1418 -8.89998
452 1 6.74577 17.7745 95.7056 -8.89999
453 1 1.60928 19.9948 85.0231 -8.89998
454 1 2.51572 19.9948 87.5869 -8.89998
455 1 3.42216 19.9948 90.1507 -8.89998
456 1 4.3286 19.9948 92.7145 -8.89998
457 1 5.23504 19.9948 95.2783 -8.89998
458 1 1.91143 17.7745 89.7234 -8.89998
459 1 2.81787 17.7745 92.2872 -8.89998
460 1 3.72431 17.7745 94.851 -8.89998
461 1 2.21357 19.9948 94.4237 -8.89998
462 1 1.60928 17.7745 96.5602 -8.91611
463 1 2.51572 17.7745 99.124 -7.83773
464 1 3.12001 19.9948 96.9875 -8.92667
465 1 4.02645 19.9948 99.5513 -7.85861
466 1 4.63075 17.7745 97.4148 -8.93195
467 1 5.53719 17.7745 99.9786 -7.60504
468 1 6.14148 19.9948 97.8421 -8.94308
469 1 7.04792 19.9948 100.406 -6.80401
470 1 7.65221 17.7745 98.2694 -8.6482
471 1 1.00499 19.9948 98.6967 -8.16469
472 1 2.62458 22.2294 52.832 -8.68253
473 1 3.39984 22.2251 55.5476 -8.90258
474 1 4.34198 22.2137 58.1056 -8.89552
475 1 5.24149 22.2148 60.6705 -8.90189
476 1 6.14505 22.2151 63.2333 -8.90015
477 1 7.04982 22.2152 65.796 -8.89991
478 1 7.95531 22.2152 68.3591 -8.89994
479 1 0.703209 22.2152 70.9225 -8.9
480 1 1.91793 24.4368 55.1112 -8.83518
481 1 2.82139 24.4389 57.6776 -8.8933
482 1 3.72791 24.4369 60.2411 -8.89654
483 1 4.63286 24.4363 62.8049 -8.89978
484 1 5.5384 24.436 65.3683 -8.9
485 1 6.44426 24.4358 67.9317 -8.89998
486 1 7.35034 24.4357 70.4951 -8.90001
487 1 0.0985478 24.4355 73.0587 -8.89992
488 1 3.02686 24.4362 50.5978 -8.71877
489 1 3.97211 24.465 53.3889 -8.62068
490 1 4.93353 24.4454 55.975 -8.96329
491 1 5.84469 24.439 58.5363 -8.90495
492 1 6.74891 24.437 61.098 -8.89851
493 1 7.65411 24.4363 63.66 -8.89953
494 1 0.401712 24.436 66.2229 -8.89992
495 1 1.30764 24.4358 68.7862 -8.89995
496 1 6.04092 24.2873 51.7539 -8.35518
497 1 5.54477 22.3098 53.9881 -8.61572
498 1 6.48341 22.2171 56.4556 -8.74242
499 1 7.36537 22.2107 58.9768 -8.87268
500 1 0.104974 22.2144 61.5271 -8.89767
501 1 1.00809 22.2152 64.0879 -8.89974
502 1 4.67352 26.6384 51.1871 -8.84639
503 1 7.07141 24.4653 54.2639 -8.88123
504 1 7.96321 24.436 56.8209 -8.88696
505 1 0.707107 24.438 59.3886 -8.90434
506 1 7.71912 22.2674 52.2204 -8.59356
507 1 0.455397 22.1866 54.7057 -8.90957
508 1 1.31748 22.2148 57.2684 -8.90192
509 1 1.03688 24.4533 52.5764 -8.78551
510 1 2.2233 22.2152 59.8197 -8.89979
511 1 3.12489 22.2154 62.3796 -8.89881
512 1 4.0289 22.2153 64.9418 -8.89976
513 1 4.93411 22.2152 67.5047 -8.89991
514 1 5.83986 22.2152 70.068 -8.90003
515 1 6.74577 22.2152 72.6314 -8.89998
516 1 1.6122 24.4366 61.951 -8.90055
517 1 2.51729 24.4362 64.514 -8.90001
518 1 3.42298 24.4359 67.0773 -8.89996
519 1 4.32897 24.4358 69.6406 -8.89994
520 1 5.23504 24.4355 72.2041 -8.89998
521 1 1.91297 22.2152 66.6504 -8.89991
522 1 2.81859 22.2152 69.2136 -8.89996
523 1 3.72451 22.2152 71.777 -8.90001
524 1 2.21374 24.4356 71.3497 -8.90004
525 1 1.60928 22.2152 73.486 -8.89992
526 1 2.51572 22.2152 76.0498 -8.89997
527 1 3.42216 22.2152 78.6136 -8.89998
528 1 4.3286 22.2152 81.1774 -8.89998
529 1 5.23504 22.2152 83.7412 -8.89998
530 1 6.14148 22.2152 86.305 -8.89998
531 1 7.04792 22.2152 88.8688 -8.89998
532 1 7.95436 22.2152 91.4326 -8.89998
533 1 0.702841 22.2152 93.9964 -8.89998
534 1 1.91143 24.4355 78.1863 -8.89998
535 1 2.81787 24.4355 80.7501 -8.89998
536 1 3.72431 24.4355 83.3139 -8.89998
537 1 4.63075 24.4355 85.8777 -8.89998
538 1 5.53719 24.4355 88.4415 -8.89998
539 1 6.44363 24.4355 91.0053 -8.89998
540 1 7.35007 24.4355 93.5691 -8.89998
541 1 0.0985478 24.4355 96.1329 -8.91055
542 1 3.12001 24.4355 73.9133 -8.89994
543 1 4.02645 24.4355 76.4771 -8.89997
544 1 4.93289 24.4355 79.0409 -8.89998
545 1 5.83933 24.4355 81.6047 -8.89998
546 1 6.74577 24.4355 84.1685 -8.89998
547 1 7.65221 24.4355 86.7323 -8.89998
548 1 0.400694 24.4355 89.2961 -8.89998
549 1 1.30713 24.4355 91.8599 -8.89998
550 1 4.63075 22.2152 74.3406 -8.89993
551 1 5.53719 22.2152 76.9044 -8.89998
552 1 6.44363 22.2152 79.4682 -8.89998
553 1 7.35007 22.2152 82.032 -8.89998
554 1 0.0985478 22.2152 84.5958 -8.89998
555 1 1.00499 22.2152 87.1596 -8.89998
556 1 6.14148 24.4355 74.7679 -8.89996
557 1 7.04792 24.4355 77.3317 -8.89998
558 1 7.95436 24.4355 79.8955 -8.89998
559 1 0.702841 24.4355 82.4593 -8.89998
560 1 7.65221 22.2152 75.1952 -8.89995
561 1 0.400694 22.2152 77.759 -8.89998
562 1 1.30713 22.2152 80.3228 -8.89998
563 1 1.00499 24.4355 75.6225 -8.89997
564 1 2.21357 22.2152 82.8866 -8.89998
565 1 3.12001 22.2152 85.4504 -8.89998
566 1 4.02645 22.2152 88.0142 -8.89998
567 1 4.93289 22.2152 90.578 -8.89998
568 1 5.83933 22.2152 93.1418 -8.89998
569 1 6.74577 22.2152 95.7056 -8.89999
570 1 1.60928 24.4355 85.0231 -8.89998
571 1 2.51572 24.4355 87.5869 -8.89998
572 1 3.42216 24.4355 90.1507 -8.89998
573 1 4.3286 24.4355 92.7145 -8.89998
574 1 5.23504 24.4355 95.2783 -8.89998
575 1 1.91143 22.2152 89.7234 -8.89998
576 1 2.81787 22.2152 92.2872 -8.89998
577 1 3.72431 22.2152 94.851 -8.89998
578 1 2.21357 24.4355 94.4237 -8.89998
579 1 1.60928 22.2152 96.5602 -8.91611
580 1 2.51572 22.2152 99.124 -7.83773
581 1 3.12001 24.4355 96.9875 -8.92667
582 1 4.02645 24.4355 99.5513 -7.85861
583 1 4.63075 22.2152 97.4148 -8.93195
584 1 5.53719 22.2152 99.9786 -7.60504
585 1 6.14148 24.4355 97.8421 -8.94308
586 1 7.04792 24.4355 100.406 -6.80401
587 1 7.65221 22.2152 98.2694 -8.6482
588 1 1.00499 24.4355 98.6967 -8.16469
589 1 2.51177 0.0163241 52.9379 -8.72502
590 1 3.40869 0.0184419 55.5178 -8.89726
591 1 4.32509 0.0139849 58.0982 -8.906
592 1 5.23435 0.0131085 60.6663 -8.9022
593 1 6.14134 0.0129464 63.2311 -8.90055
594 1 7.04795 0.0127209 65.7949 -8.90007
595 1 7.9544 0.0125098 68.3586 -8.9
596 1 0.702863 0.0122863 70.9223 -8.89999
597 1 1.89918 2.2274 55.1007 -8.88747
598 1 2.80983 2.22989 57.6718 -8.8975
599 1 3.72021 2.23201 60.2379 -8.9001
600 1 4.62862 2.23282 62.8027 -8.90012
601 1 5.5361 2.23296 65.3669 -8.90007
602 1 6.44309 2.23285 67.9309 -8.9
603 1 7.34985 2.23264 70.4948 -8.89997
604 1 0.0985478 2.23231 73.0587 -8.90001
605 1 3.01271 2.23036 50.5118 -8.9894
606 1 3.98101 2.2193 53.3331 -8.87191
607 1 4.91673 2.22605 55.9535 -8.91133
608 1 5.83291 2.23074 58.5271 -8.9027
609 1 6.74247 2.23247 61.0931 -8.9
610 1 7.65054 2.23293 63.6575 -8.90005
611 1 0.399839 2.23294 66.2216 -8.9
612 1 1.30672 2.23279 68.7856 -8.89999
613 1 6.11732 2.22769 51.7404 -8.47723
614 1 5.50639 26.6415 53.8237 -8.86
615 1 6.43957 0.0135547 56.3889 -8.89879
616 1 7.34877 0.0131419 58.9559 -8.89543
617 1 0.0982211 0.0130981 61.5215 -8.90071
618 1 1.005 0.0128506 64.0857 -8.90012
619 1 4.66135 4.43285 51.306 -8.86616
620 1 7.02881 2.21902 54.251 -8.87158
621 1 7.94489 2.22947 56.8147 -8.89818
622 1 0.697639 2.23171 59.3826 -8.90147
623 1 7.55868 26.6253 52.0603 -8.91294
624 1 0.396094 0.0225052 54.6605 -8.90655
625 1 1.30352 0.0142476 57.2431 -8.90019
626 1 0.997944 2.22547 52.5153 -8.93423
627 1 2.21264 0.0130708 59.811 -8.90058
628 1 3.11985 0.0129083 62.3761 -8.89992
629 1 4.02645 0.012757 64.9403 -8.89997
630 1 4.93293 0.0125726 67.504 -8.89999
631 1 5.83936 0.0123474 70.0677 -8.90001
632 1 6.74577 0.0119971 72.6314 -8.89998
633 1 1.60668 2.23271 61.9479 -8.90014
634 1 2.51438 2.23295 64.5122 -8.90001
635 1 3.42148 2.23289 67.0763 -8.89999
636 1 4.32829 2.23272 69.6402 -8.89999
637 1 5.23504 2.23231 72.2041 -8.89997
638 1 1.91148 0.0126478 66.6495 -8.90002
639 1 2.8179 0.0124431 69.2131 -8.89999
640 1 3.72432 0.0122091 71.7768 -8.89998
641 1 2.21344 2.23258 71.3494 -8.89995
642 1 1.60928 0.0119971 73.486 -8.89997
643 1 2.51572 0.0119971 76.0498 -8.89998
644 1 3.42216 0.0119971 78.6136 -8.89998
645 1 4.3286 0.0119971 81.1774 -8.89998
646 1 5.23504 0.0119971 83.7412 -8.89998
647 1 6.14148 0.0119971 86.305 -8.89998
648 1 7.04792 0.0119971 88.8688 -8.89998
649 1 7.95436 0.0119971 91.4326 -8.89998
650 1 0.702841 0.0119971 93.9964 -8.89998
651 1 1.91143 2.23231 78.1863 -8.89998
652 1 2.81787 2.23231 80.7501 -8.89998
653 1 3.72431 2.23231 83.3139 -8.89998
654 1 4.63075 2.23231 85.8777 -8.89998
655 1 5.53719 2.23231 88.4415 -8.89998
656 1 6.44363 2.23231 91.0053 -8.89998
657 1 7.35007 2.23231 93.5691 -8.89998
658 1 0.0985478 2.23231 96.1329 -8.91055
659 1 3.12001 2.23231 73.9133 -8.9
660 1 4.02645 2.23231 76.4771 -8.89998
661 1 4.93289 2.23231 79.0409 -8.89998
662 1 5.83933 2.23231 81.6047 -8.89998
663 1 6.74577 2.23231 84.1685 -8.89998
664 1 7.65221 2.23231 86.7323 -8.89998
665 1 0.400694 2.23231 89.2961 -8.89998
666 1 1.30713 2.23231 91.8599 -8.89998
667 1 4.63075 0.0119971 74.3406 -8.89996
668 1 5.53719 0.0119971 76.9044 -8.89998
669 1 6.44363 0.0119971 79.4682 -8.89998
670 1 7.35007 0.0119971 82.032 -8.89998
671 1 0.0985478 0.0119971 84.5958 -8.89998
672 1 1.00499 0.0119971 87.1596 -8.89998
673 1 6.14148 2.23231 74.7679 -8.89998
674 1 7.04792 2.23231 77.3317 -8.89998
675 1 7.95436 2.23231 79.8955 -8.89998
676 1 0.702841 2.23231 82.4593 -8.89998
677 1 7.65221 0.0119971 75.1952 -8.89997
678 1 0.400694 0.0119971 77.759 -8.89998
679 1 1.30713 0.0119971 80.3228 -8.89998
680 1 1.00499 2.23231 75.6225 -8.89998
681 1 2.21357 0.0119971 82.8866 -8.89998
682 1 3.12001 0.0119971 85.4504 -8.89998
683 1 4.02645 0.0119971 88.0142 -8.89998
684 1 4.93289 0.0119971 90.578 -8.89998
685 1 5.83933 0.0119971 93.1418 -8.89998
686 1 6.74577 0.0119971 95.7056 -8.89999
687 1 1.60928 2.23231 85.0231 -8.89998
688 1 2.51572 2.23231 87.5869 -8.89998
689 1 3.42216 2.23231 90.1507 -8.89998
690 1 4.3286 2.23231 92.7145 -8.89998
691 1 5.23504 2.23231 95.2783 -8.89998
692 1 1.91143 0.0119971 89.7234 -8.89998
693 1 2.81787 0.0119971 92.2872 -8.89998
694 1 3.72431 0.0119971 94.851 -8.89998
695 1 2.21357 2.23231 94.4237 -8.89998
696 1 1.60928 0.0119971 96.5602 -8.91611
697 1 2.51572 0.0119971 99.124 -7.83773
698 1 3.12001 2.23231 96.9875 -8.92667
699 1 4.02645 2.23231 99.5513 -7.85861
700 1 4.63075 0.0119971 97.4148 -8.93195
701 1 5.53719 0.0119971 99.9786 -7.60504
702 1 6.14148 2.23231 97.8421 -8.94308
703 1 7.04792 2.23231 100.406 -6.80401
704 1 7.65221 0.0119971 98.2694 -8.6482
705 1 1.00499 2.23231 98.6967 -8.16469
706 1 0 0.005 5e-05 -6.80401
707 1 2.11503 0.005 1.70925 -8.16469
708 1 4.23005 0.005 3.41845 -8.92667
709 1 6.34508 0.005 5.12765 -8.89998
710 1 3.62576 2.22532 1.28195 -7.83773
711 1 5.74079 2.22532 2.99115 -8.93195
712 1 7.85581 2.22532 4.70035 -8.89999
713 1 0.604293 2.22532 2.13655 -8.6482
714 1 2.71932 2.22532 3.84575 -8.91611
715 1 4.83435 2.22532 5.55495 -8.89998
716 1 6.94937 2.22532 7.26415 -8.89998
717 1 1.20859 0.005 4.27305 -8.91055
718 1 3.32361 0.005 5.98225 -8.89998
719 1 5.43864 0.005 7.69145 -8.89998
720 1 7.55367 0.005 9.40065 -8.89998
721 1 1.81288 2.22532 6.40955 -8.89998
722 1 3.92791 2.22532 8.11875 -8.89998
723 1 6.04293 2.22532 9.82795 -8.89998
724 1 0.302147 0.005 6.83685 -8.89998
725 1 2.41717 0.005 8.54605 -8.89998
726 1 4.5322 0.005 10.2552 -8.89998
727 1 6.64723 0.005 11.9644 -8.89998
728 1 0.90644 2.22532 8.97335 -8.89998
729 1 3.02147 2.22532 10.6825 -8.89998
730 1 5.13649 2.22532 12.3917 -8.89998
731 1 7.25152 2.22532 14.1009 -8.89998
732 1 1.51073 0.005 11.1098 -8.89998
733 1 3.62576 0.005 12.819 -8.89998
734 1 5.74079 0.005 14.5282 -8.89998
735 1 7.85581 0.005 16.2374 -8.89998
736 1 0 2.22532 11.5371 -8.89998
737 1 2.11503 2.22532 13.2463 -8.89998
738 1 4.23005 2.22532 14.9555 -8.89998
739 1 6.34508 2.22532 16.6647 -8.89998
740 1 0.604293 0.005 13.6736 -8.89998
741 1 2.71932 0.005 15.3828 -8.89998
742 1 4.83435 0.005 17.092 -8.89998
743 1 6.94937 0.005 18.8012 -8.89998
744 1 1.20859 2.22532 15.8101 -8.89998
745 1 3.32361 2.22532 17.5193 -8.89998
746 1 5.43864 2.22532 19.2285 -8.89998
747 1 7.55367 2.22532 20.9377 -8.89998
748 1 1.81288 0.005 17.9466 -8.89998
749 1 3.92791 0.005 19.6558 -8.89998
750 1 6.04293 0.005 21.365 -8.89998
751 1 0.302147 2.22532 18.3739 -8.89998
752 1 2.41717 2.22532 20.0831 -8.89998
753 1 4.5322 2.22532 21.7923 -8.89998
754 1 0.90644 0.005 20.5104 -8.89998
755 1 3.02147 0.005 22.2196 -8.89998
756 1 1.51073 2.22532 22.6469 -8.89998
757 1 5.13649 0.005 0.85465 -7.85861
758 1 7.25152 0.005 2.56385 -8.94308
759 1 6.64723 2.22532 0.42735 -7.60504
760 1 0 0.005 23.0742 -8.89998
761 1 2.11503 0.005 24.7834 -8.89996
762 1 4.23005 0.005 26.4926 -8.89993
763 1 6.34508 0.005 28.2018 -8.89999
764 1 3.62576 2.22532 24.3561 -8.89995
765 1 5.74079 2.22532 26.0653 -8.89986
766 1 7.85581 2.22532 27.7745 -8.89996
767 1 0.604293 2.22532 25.2107 -8.89992
768 1 2.71932 2.22532 26.9199 -8.89986