ITEM: TIMESTEP
0
ITEM: NUMBER OF ATOMS
294
ITEM: BOX BOUNDS pp pp ss
0.0000000000000000e+00 1.5506748434149568e+01
0.0000000000000000e+00 4.6783000000000001e+00
-6.9722435625482046e-03 7.0076465334096383e+01
ITEM: ATOMS id type x y z c_eng
1 1 1.39575 2.34416 35.9056 -4.54822
2 1 8.30782 2.34417 56.3205 -4.83147
3 1 8.86163 0.00502093 54.7217 -4.82808
4 1 7.75647 2.34417 53.4418 -4.83179
5 1 8.31255 0.00502017 51.8469 -4.82873
6 1 7.19827 2.34417 50.5685 -4.82855
7 1 7.75401 0.00502093 62.3956 -4.83118
8 1 1.66207 0.00502093 57.5994 -4.83039
9 1 6.64638 2.34417 61.1166 -4.83118
10 1 6.09257 2.34417 58.2389 -4.83115
11 1 6.64638 0.00502093 56.6402 -4.83054
12 1 5.53876 2.34417 55.3612 -4.82895
13 1 6.09303 0.00502059 53.765 -4.83008
14 1 4.98404 2.34417 52.4933 -4.8232
15 1 5.53476 0.00501994 50.8964 -4.82613
16 1 7.2002 0.00502093 59.5179 -4.83118
17 1 8.86163 2.34417 59.1982 -4.83113
18 1 2.21589 0.00502093 60.4771 -4.83118
19 1 1.66207 2.34417 62.0758 -4.83118
20 1 8.86163 0.00502093 68.151 -4.54858
21 1 7.75401 2.34417 66.872 -4.81816
22 1 8.30782 0.00502093 65.2733 -4.83118
23 1 7.2002 2.34417 63.9943 -4.83118
24 1 6.64638 0.00502093 70.0694 -3.69294
25 1 5.53876 2.34417 68.7905 -4.37289
26 1 6.09257 0.00502093 67.1917 -4.81125
27 1 4.98495 2.34417 65.9128 -4.82813
28 1 5.53876 0.00502093 64.3141 -4.83118
29 1 4.43114 2.34417 63.0351 -4.83118
30 1 3.87732 0.00502093 69.1102 -4.0641
31 1 2.7697 2.34417 67.8312 -4.55549
32 1 3.32351 0.00502093 66.2325 -4.82122
33 1 2.21589 2.34417 64.9535 -4.83118
34 1 2.7697 0.00502093 63.3548 -4.83118
35 1 4.43903 2.34417 49.6222 -4.82342
36 1 4.98495 0.00502093 61.4364 -4.83118
37 1 3.87732 2.34417 60.1574 -4.83118
38 1 4.43114 0.00502093 58.5587 -4.83106
39 1 6.60702 0.00501733 43.2876 -4.80159
40 1 5.58799 2.34417 41.9146 -4.83835
41 1 6.1651 0.00501547 40.272 -4.77748
42 1 4.8577 2.34416 39.2421 -4.7067
43 1 6.27043 0.00501206 35.3527 -4.68206
44 1 5.27243 0.00501346 37.6803 -4.54823
45 1 4.99383 0.00501907 48.0175 -4.83162
46 1 3.8688 2.34417 46.7776 -4.80706
47 1 4.40449 0.00501805 45.1746 -4.81006
48 1 3.36415 2.34417 43.9107 -4.809
49 1 3.91622 0.00501658 42.2613 -4.8499
50 1 2.68634 2.34417 41.1484 -4.76896
51 1 3.18517 0.00501412 39.5401 -4.74651
52 1 2.39373 2.34416 38.2333 -4.682
53 1 2.88881 0.00501251 36.5316 -4.72749
54 1 6.07112 2.34417 44.8335 -4.80713
55 1 8.30782 2.34417 69.7497 -3.81005
56 1 7.22035 0.00501863 46.0944 -4.82553
57 1 7.75097 0.00501951 48.9829 -4.81933
58 1 3.32351 2.34417 57.2797 -4.8318
59 1 3.87732 0.00502093 55.681 -4.8349
60 1 2.76697 2.34417 54.3971 -4.8343
61 1 3.3202 0.00502034 52.7941 -4.83627
62 1 2.21457 2.34417 51.5089 -4.8392
63 1 2.76984 0.00501973 49.8969 -4.84604
64 1 1.64495 2.34417 48.6249 -4.83517
65 1 2.19291 0.00501884 47.0114 -4.84041
66 1 8.86175 2.34417 45.7018 -4.85877
67 1 1.66278 0.00501779 44.0482 -4.89686
68 1 8.2216 2.34417 42.8422 -4.80618
69 1 8.72357 0.00501613 41.1627 -4.77883
70 1 7.74615 2.34417 39.7235 -4.93108
71 1 8.25607 0.00501374 37.9613 -5.09395
72 1 6.76552 2.34416 37.0544 -4.72752
73 1 6.65954 2.34417 47.6844 -4.83498
74 1 9.14913 2.34416 35.9056 -4.54822
75 1 0.554448 2.34417 56.3205 -4.83147
76 1 1.10826 0.00502093 54.7217 -4.82808
77 1 0.00309136 2.34417 53.4418 -4.83179
78 1 0.55918 0.00502014 51.8469 -4.82873
79 1 14.9516 2.34417 50.5685 -4.82855
80 1 0.000635509 0.00502093 62.3956 -4.83118
81 1 9.41545 0.00502093 57.5994 -4.83039
82 1 14.3998 2.34417 61.1166 -4.83118
83 1 13.8459 2.34417 58.2389 -4.83115
84 1 14.3998 0.00502093 56.6402 -4.83054
85 1 13.2921 2.34417 55.3612 -4.82895
86 1 13.8464 0.00502046 53.765 -4.83008
87 1 12.7374 2.34417 52.4933 -4.8232
88 1 13.2881 0.00501985 50.8964 -4.82613
89 1 14.9536 0.00502093 59.5179 -4.83118
90 1 1.10826 2.34417 59.1982 -4.83113
91 1 9.96926 0.00502093 60.4771 -4.83118
92 1 9.41545 2.34417 62.0758 -4.83118
93 1 1.10826 0.00502093 68.151 -4.54858
94 1 0.000635509 2.34417 66.872 -4.81816
95 1 0.554448 0.00502093 65.2733 -4.83118
96 1 14.9536 2.34417 63.9943 -4.83118
97 1 14.3998 0.00502093 70.0694 -3.69294
98 1 13.2921 2.34417 68.7905 -4.37289
99 1 13.8459 0.00502093 67.1917 -4.81125
100 1 12.7383 2.34417 65.9128 -4.82813
101 1 13.2921 0.00502093 64.3141 -4.83118
102 1 12.1845 2.34417 63.0351 -4.83118
103 1 11.6307 0.00502093 69.1102 -4.0641
104 1 10.5231 2.34417 67.8312 -4.55549
105 1 11.0769 0.00502093 66.2325 -4.82122
106 1 9.96926 2.34417 64.9535 -4.83118
107 1 10.5231 0.00502093 63.3548 -4.83118
108 1 12.1924 2.34417 49.6222 -4.82342
109 1 12.7383 0.00502093 61.4364 -4.83118
110 1 11.6307 2.34417 60.1574 -4.83118
111 1 12.1845 0.00502093 58.5587 -4.83106
112 1 14.3604 0.0050173 43.2876 -4.80159
113 1 13.3414 2.34417 41.9146 -4.83835
114 1 13.9185 0.00501531 40.272 -4.77748
115 1 12.6111 2.34416 39.2421 -4.7067
116 1 14.0238 0.00501218 35.3527 -4.68206
117 1 13.0258 0.00501385 37.6803 -4.54823
118 1 12.7472 0.00501912 48.0175 -4.83162
119 1 11.6222 2.34417 46.7776 -4.80706
120 1 12.1579 0.00501803 45.1746 -4.81006
121 1 11.1175 2.34417 43.9107 -4.809
122 1 11.6696 0.00501684 42.2613 -4.8499
123 1 10.4397 2.34417 41.1484 -4.76896
124 1 10.9385 0.00501417 39.5401 -4.74651
125 1 10.1471 2.34416 38.2333 -4.682
126 1 10.6422 0.00501233 36.5316 -4.72749
127 1 13.8245 2.34417 44.8335 -4.80713
128 1 0.554448 2.34417 69.7497 -3.81005
129 1 14.9737 0.00501858 46.0944 -4.82553
130 1 15.5043 0.0050193 48.9829 -4.81933
131 1 11.0769 2.34417 57.2797 -4.8318
132 1 11.6307 0.00502093 55.681 -4.8349
133 1 10.5203 2.34417 54.3971 -4.8343
134 1 11.0736 0.00502034 52.7941 -4.83627
135 1 9.96794 2.34417 51.5089 -4.83921
136 1 10.5232 0.00501966 49.8969 -4.84604
137 1 9.39833 2.34417 48.6249 -4.83517
138 1 9.94628 0.00501888 47.0114 -4.84041
139 1 1.10837 2.34417 45.7018 -4.85877
140 1 9.41615 0.00501779 44.0482 -4.89686
141 1 0.468225 2.34417 42.8422 -4.80618
142 1 0.970195 0.00501605 41.1627 -4.77883
143 1 15.4995 2.34417 39.7235 -4.93108
144 1 0.502699 0.00501374 37.9613 -5.09395
145 1 14.5189 2.34416 37.0544 -4.72752
146 1 14.4129 2.34417 47.6844 -4.83498
147 1 0 0.005 5e-05 -2.91263
148 1 6.0912 0.0050036 22.0794 -4.83842
149 1 7.19582 2.34415 20.7942 -4.8354
150 1 6.6428 0.00500225 19.1912 -4.83346
151 1 0.000364353 2.34415 17.9119 -4.83554
152 1 7.19928 0.00500084 16.3102 -4.83368
153 1 3.34372 2.34416 27.4913 -4.82558
154 1 6.64648 2.34415 23.6907 -4.84548
155 1 2.78283 0.00500565 25.9015 -4.83486
156 1 3.32123 0.00500413 23.0169 -4.82855
157 1 4.43629 2.34415 21.7384 -4.82899
158 1 3.88039 0.00500275 20.1443 -4.83216
159 1 4.98521 2.34415 18.8607 -4.82821
160 1 4.43121 0.00500146 17.2655 -4.83073
161 1 5.53957 2.34415 15.9859 -4.83017
162 1 3.87419 2.34415 24.6024 -4.81976
163 1 5.5213 0.00500498 24.962 -4.8349
164 1 6.06935 2.34416 26.5754 -4.84017
165 1 15.4989 0.00500617 26.8078 -4.80746
166 1 6.56305 0.00500927 32.4375 -4.76909
167 1 0.0396427 2.34416 31.3245 -4.84989
168 1 7.24093 0.00500723 29.675 -4.80912
169 1 4.3794 2.34416 35.6247 -5.09397
170 1 3.86944 0.00501016 33.8626 -4.93107
171 1 4.84687 2.34416 32.4235 -4.77877
172 1 4.34479 0.00500803 30.7441 -4.80608
173 1 5.53941 2.34416 29.5382 -4.89677
174 1 4.98499 0.00500638 27.8848 -4.85858
175 1 0.981004 0.00501126 34.3438 -4.70667
176 1 2.28842 2.34416 33.3139 -4.7775
177 1 1.7112 0.00500893 31.6713 -4.83828
178 1 2.73035 2.34416 30.2983 -4.8017
179 1 2.19436 0.00500714 28.7524 -4.80714
180 1 0.527938 2.34416 28.4112 -4.81015
181 1 4.98431 0.005 14.3885 -4.83139
182 1 1.11752 2.34416 25.5682 -4.8316
183 1 0.562819 0.0050046 23.9629 -4.82375
184 1 1.65819 2.34415 22.6887 -4.82637
185 1 4.4305 2.34415 8.31339 -4.83118
186 1 3.87669 0.005 6.71467 -4.83118
187 1 4.98431 2.34415 5.43569 -4.83118
188 1 4.4305 0.005 3.83698 -4.82122
189 1 5.53812 2.34415 2.558 -4.64741
190 1 4.98431 0.005 0.959281 -4.00031
191 1 1.10762 2.34415 12.1503 -4.83116
192 1 0.553812 0.005 10.5516 -4.83118
193 1 1.66144 2.34415 9.27262 -4.83118
194 1 1.10762 0.005 7.6739 -4.83118
195 1 2.21525 2.34415 6.39493 -4.83118
196 1 1.66144 0.005 4.79621 -4.83118
197 1 2.76906 2.34415 3.51723 -4.81816
198 1 2.21525 0.005 1.91851 -4.54167
199 1 0.553812 2.34415 1.59877 -4.39166
200 1 3.32287 0.005 9.59236 -4.83118
201 1 7.06194 2.34416 34.0458 -4.74652
202 1 3.87669 2.34415 11.1911 -4.8312
203 1 3.32287 2.34415 14.0688 -4.83099
204 1 1.1074 0.00500322 21.0905 -4.82462
205 1 2.21735 2.34415 19.8204 -4.83056
206 1 1.66353 0.00500168 18.2212 -4.82827
207 1 2.76885 2.34415 16.944 -4.82966
208 1 2.21525 0.005 15.3478 -4.82937
209 1 0.553812 2.34415 15.028 -4.83254
210 1 5.42736e-15 0.005 13.4293 -4.83189
211 1 6.09194 2.34415 13.1095 -4.83042
212 1 5.53812 0.005 11.5108 -4.83118
213 1 6.64575 2.34415 10.2319 -4.83118
214 1 6.09194 0.005 8.63313 -4.83118
215 1 7.19956 2.34415 7.35416 -4.83118
216 1 6.64575 0.005 5.75544 -4.83118
217 1 3.87669e-15 2.34415 4.47646 -4.82813
218 1 7.19956 0.005 2.87774 -4.72768
219 1 2.76906 0.005 12.4701 -4.83123
220 1 3.32287 2.34415 0.639538 -3.81696
221 1 7.75337 0.005 5e-05 -2.91263
222 1 13.8446 0.0050036 22.0794 -4.83842
223 1 14.9492 2.34415 20.7942 -4.8354
224 1 14.3962 0.00500209 19.1912 -4.83346
225 1 7.75374 2.34415 17.9119 -4.83554
226 1 14.9527 0.00500077 16.3102 -4.83368
227 1 11.0971 2.34416 27.4913 -4.82558
228 1 14.3999 2.34415 23.6907 -4.84548
229 1 10.5362 0.0050054 25.9015 -4.83486
230 1 11.0746 0.00500411 23.0169 -4.82855
231 1 12.1897 2.34415 21.7384 -4.82899
232 1 11.6338 0.00500269 20.1443 -4.83216
233 1 12.7386 2.34415 18.8607 -4.82821
234 1 12.1846 0.0050013 17.2655 -4.83073
235 1 13.2929 2.34415 15.9859 -4.83017
236 1 11.6276 2.34415 24.6024 -4.81976
237 1 13.2747 0.00500497 24.962 -4.8349
238 1 13.8227 2.34416 26.5754 -4.84017
239 1 7.74556 0.0050059 26.8078 -4.80746
240 1 14.3164 0.00500996 32.4375 -4.76909
241 1 7.79302 2.34416 31.3245 -4.84989
242 1 14.9943 0.00500766 29.675 -4.80912
243 1 12.1328 2.34416 35.6247 -5.09397
244 1 11.6228 0.00501037 33.8626 -4.93107
245 1 12.6002 2.34416 32.4235 -4.77877
246 1 12.0982 0.00500821 30.7441 -4.80608
247 1 13.2928 2.34416 29.5382 -4.89677
248 1 12.7384 0.00500639 27.8848 -4.85858
249 1 8.73438 0.00501143 34.3438 -4.70666
250 1 10.0418 2.34416 33.3139 -4.7775
251 1 9.46457 0.00500864 31.6713 -4.83828
252 1 10.4837 2.34416 30.2983 -4.8017
253 1 9.94773 0.00500701 28.7524 -4.80714
254 1 8.28131 2.34416 28.4112 -4.81015
255 1 12.7377 0.005 14.3885 -4.83139
256 1 8.8709 2.34416 25.5682 -4.8316
257 1 8.31619 0.0050044 23.9629 -4.82375
258 1 9.41156 2.34415 22.6887 -4.82637
259 1 12.1839 2.34415 8.31339 -4.83118
260 1 11.6301 0.005 6.71467 -4.83118
261 1 12.7377 2.34415 5.43569 -4.83118
262 1 12.1839 0.005 3.83698 -4.82122
263 1 13.2915 2.34415 2.558 -4.64741
264 1 12.7377 0.005 0.959281 -4.00031
265 1 8.861 2.34415 12.1503 -4.83116
266 1 8.30719 0.005 10.5516 -4.83118
267 1 9.41481 2.34415 9.27262 -4.83118
268 1 8.861 0.005 7.6739 -4.83118
269 1 9.96862 2.34415 6.39493 -4.83118
270 1 9.41481 0.005 4.79621 -4.83118
271 1 10.5224 2.34415 3.51723 -4.81816
272 1 9.96862 0.005 1.91851 -4.54167
273 1 8.30719 2.34415 1.59877 -4.39166
274 1 11.0762 0.005 9.59236 -4.83118
275 1 14.8153 2.34416 34.0458 -4.74652
276 1 11.6301 2.34415 11.1911 -4.8312
277 1 11.0762 2.34415 14.0688 -4.83099
278 1 8.86078 0.00500312 21.0905 -4.82462
279 1 9.97072 2.34415 19.8204 -4.83056
280 1 9.41691 0.0050017 18.2212 -4.82827
281 1 10.5222 2.34415 16.944 -4.82966
282 1 9.96862 0.005 15.3478 -4.82937
283 1 8.30719 2.34415 15.028 -4.83254
284 1 7.75337 0.005 13.4293 -4.83189
285 1 13.8453 2.34415 13.1095 -4.83042
286 1 13.2915 0.005 11.5108 -4.83118
287 1 14.3991 2.34415 10.2319 -4.83118
288 1 13.8453 0.005 8.63313 -4.83118
289 1 14.9529 2.34415 7.35416 -4.83118
290 1 14.3991 0.005 5.75544 -4.83118
291 1 7.75337 2.34415 4.47646 -4.82813
292 1 14.9529 0.005 2.87774 -4.72768
293 1 10.5224 0.005 12.4701 -4.83123
294 1 11.0762 2.34415 0.639538 -3.81696
Egb = 0.50840658447605
