ITEM: TIMESTEP
0
ITEM: NUMBER OF ATOMS
292
ITEM: BOX BOUNDS pp pp ss
0.0000000000000000e+00 1.5506748434149568e+01
0.0000000000000000e+00 4.6783000000000001e+00
-6.9147742955610299e-03 6.9608065429001456e+01
ITEM: ATOMS id type x y z c_eng
1 1 7.75226 0.0049998 55.8521 -4.83017
2 1 8.30607 2.34415 54.2534 -4.82707
3 1 7.20033 0.00499971 52.9795 -4.82686
4 1 7.75482 2.34415 51.3878 -4.82328
5 1 6.6484 0.00499954 50.1105 -4.82463
6 1 7.19844 2.34415 61.9273 -4.83118
7 1 1.10651 2.34415 57.1311 -4.83001
8 1 6.09082 0.0049998 60.6483 -4.83118
9 1 5.53701 0.0049998 57.7706 -4.8311
10 1 6.09082 2.34415 56.1719 -4.83215
11 1 4.98319 0.0049998 54.8929 -4.83041
12 1 5.53479 2.34415 53.292 -4.83337
13 1 4.42756 0.00499961 52.0165 -4.82822
14 1 4.97964 2.34415 50.4125 -4.83365
15 1 6.64463 2.34415 59.0496 -4.83118
16 1 8.30607 0.0049998 58.7298 -4.83109
17 1 1.66032 2.34415 60.0088 -4.83118
18 1 1.10651 0.0049998 61.6075 -4.83118
19 1 8.30607 2.34415 67.6826 -4.54858
20 1 7.19844 0.0049998 66.4037 -4.81816
21 1 7.75226 2.34415 64.8049 -4.83118
22 1 6.64463 0.0049998 63.526 -4.83118
23 1 6.09082 2.34415 69.6011 -3.69294
24 1 4.98319 0.0049998 68.3221 -4.37289
25 1 5.53701 2.34415 66.7234 -4.81125
26 1 4.42938 0.0049998 65.4444 -4.82813
27 1 4.98319 2.34415 63.8457 -4.83118
28 1 3.87557 0.0049998 62.5667 -4.83118
29 1 3.32176 2.34415 68.6419 -4.0641
30 1 2.21413 0.0049998 67.3629 -4.55549
31 1 2.76794 2.34415 65.7642 -4.82122
32 1 1.66032 0.0049998 64.4852 -4.83118
33 1 2.21413 2.34415 62.8865 -4.83118
34 1 3.8743 0.00499958 49.1405 -4.8282
35 1 4.42938 2.34415 60.968 -4.83118
36 1 3.32176 0.0049998 59.689 -4.83118
37 1 3.87557 2.34415 58.0903 -4.83098
38 1 6.10555 2.34415 42.849 -4.79401
39 1 5.02117 0.00499887 41.5443 -4.79391
40 1 5.61274 2.34415 40.0169 -4.73456
41 1 4.40237 0.004998 38.7805 -4.77235
42 1 5.16335 2.34415 37.289 -4.69542
43 1 4.01534 0.00499805 35.9897 -4.68639
44 1 4.42718 2.34415 47.5297 -4.83708
45 1 3.31609 0.00499927 46.2691 -4.82299
46 1 3.86648 2.34415 44.6511 -4.83246
47 1 2.77338 0.00499898 43.3898 -4.82302
48 1 3.3407 2.34415 41.7475 -4.85455
49 1 2.19219 0.0049986 40.531 -4.79394
50 1 2.80975 2.34415 38.8888 -4.82184
51 1 1.69652 0.00499833 37.5917 -4.78847
52 1 2.55975 2.34415 36.0469 -4.78373
53 1 5.54663 0.00499887 44.3953 -4.80929
54 1 7.75226 0.0049998 69.2814 -3.81005
55 1 6.65968 2.34415 45.671 -4.80729
56 1 7.20286 2.34415 48.5265 -4.81638
57 1 2.76794 0.0049998 56.8114 -4.83181
58 1 3.32176 2.34415 55.2126 -4.83363
59 1 2.21322 0.00499981 53.927 -4.83606
60 1 2.7673 2.34415 52.3258 -4.83447
61 1 1.65756 0.00499974 51.0396 -4.83986
62 1 2.21358 2.34415 49.4366 -4.83839
63 1 1.09892 0.00499952 48.1458 -4.84326
64 1 1.65652 2.34415 46.5439 -4.83918
65 1 8.30066 0.0049991 45.2329 -4.85778
66 1 1.11596 2.34415 43.6242 -4.85528
67 1 7.73036 0.0049988 42.31 -4.86226
68 1 8.31676 2.34415 40.7015 -4.8365
69 1 7.20695 0.00499844 39.2941 -4.92627
70 1 7.89271 2.34415 37.6851 -4.85284
71 1 6.78513 0.00499811 36.1456 -4.99008
72 1 6.10127 0.00499934 47.2455 -4.82149
73 1 15.5056 0.0049998 55.8521 -4.83017
74 1 0.552694 2.34415 54.2534 -4.82707
75 1 14.9537 0.0049998 52.9795 -4.82686
76 1 0.00144834 2.34415 51.3878 -4.82328
77 1 14.4018 0.00499981 50.1105 -4.82463
78 1 14.9518 2.34415 61.9273 -4.83118
79 1 8.85988 2.34415 57.1311 -4.83001
80 1 13.8442 0.0049998 60.6483 -4.83118
81 1 13.2904 0.0049998 57.7706 -4.8311
82 1 13.8442 2.34415 56.1719 -4.83215
83 1 12.7366 0.0049998 54.8929 -4.83041
84 1 13.2882 2.34415 53.292 -4.83337
85 1 12.1809 0.0049999 52.0165 -4.82822
86 1 12.733 2.34415 50.4125 -4.83365
87 1 14.398 2.34415 59.0496 -4.83118
88 1 0.552694 0.0049998 58.7298 -4.83109
89 1 9.41369 2.34415 60.0088 -4.83118
90 1 8.85988 0.0049998 61.6075 -4.83118
91 1 0.552694 2.34415 67.6826 -4.54858
92 1 14.9518 0.0049998 66.4037 -4.81816
93 1 15.5056 2.34415 64.8049 -4.83118
94 1 14.398 0.0049998 63.526 -4.83118
95 1 13.8442 2.34415 69.6011 -3.69294
96 1 12.7366 0.0049998 68.3221 -4.37289
97 1 13.2904 2.34415 66.7234 -4.81125
98 1 12.1828 0.0049998 65.4444 -4.82813
99 1 12.7366 2.34415 63.8457 -4.83118
100 1 11.6289 0.0049998 62.5667 -4.83118
101 1 11.0751 2.34415 68.6419 -4.0641
102 1 9.96751 0.0049998 67.3629 -4.55549
103 1 10.5213 2.34415 65.7642 -4.82122
104 1 9.41369 0.0049998 64.4852 -4.83118
105 1 9.96751 2.34415 62.8865 -4.83118
106 1 11.6277 0.00499958 49.1405 -4.8282
107 1 12.1828 2.34415 60.968 -4.83118
108 1 11.0751 0.0049998 59.689 -4.83118
109 1 11.6289 2.34415 58.0903 -4.83098
110 1 13.8589 2.34415 42.849 -4.79401
111 1 12.7745 0.00499874 41.5443 -4.79391
112 1 13.3661 2.34415 40.0169 -4.73456
113 1 12.1557 0.00499913 38.7805 -4.77235
114 1 12.9167 2.34415 37.289 -4.69542
115 1 11.7687 0.00499788 35.9897 -4.68639
116 1 12.1806 2.34415 47.5297 -4.83708
117 1 11.0695 0.00499919 46.2691 -4.82299
118 1 11.6199 2.34415 44.6511 -4.83246
119 1 10.5267 0.00499894 43.3898 -4.82302
120 1 11.0941 2.34415 41.7475 -4.85455
121 1 9.94557 0.0049985 40.531 -4.79394
122 1 10.5631 2.34415 38.8888 -4.82184
123 1 9.4499 0.00499864 37.5917 -4.78847
124 1 10.3131 2.34415 36.0469 -4.78373
125 1 13.3 0.00499892 44.3953 -4.80929
126 1 15.5056 0.0049998 69.2814 -3.81005
127 1 14.4131 2.34415 45.671 -4.80729
128 1 14.9562 2.34415 48.5265 -4.81638
129 1 10.5213 0.0049998 56.8114 -4.83181
130 1 11.0751 2.34415 55.2126 -4.83363
131 1 9.96659 0.00499981 53.927 -4.83606
132 1 10.5207 2.34415 52.3258 -4.83447
133 1 9.41093 0.00499973 51.0396 -4.83986
134 1 9.96696 2.34415 49.4366 -4.83839
135 1 8.8523 0.00499932 48.1458 -4.84326
136 1 9.40989 2.34415 46.5439 -4.83918
137 1 0.547286 0.0049993 45.2329 -4.85778
138 1 8.86933 2.34415 43.6242 -4.85528
139 1 15.4837 0.00499886 42.31 -4.86226
140 1 0.563381 2.34415 40.7015 -4.8365
141 1 14.9603 0.00499843 39.2941 -4.92627
142 1 0.139339 2.34415 37.6851 -4.85284
143 1 14.5385 0.00499799 36.1456 -4.99008
144 1 13.8546 0.00499942 47.2455 -4.82149
145 1 0 0.005 5e-05 -2.91263
146 1 6.10169 0.00499882 22.0349 -4.82146
147 1 7.20303 2.34415 20.7542 -4.81622
148 1 6.64874 0.00499935 19.1697 -4.82472
149 1 0.00208504 2.34415 17.8939 -4.82219
150 1 7.20201 0.00499976 16.3015 -4.82717
151 1 3.34079 2.34415 27.5325 -4.85456
152 1 6.65992 2.34415 23.6095 -4.80708
153 1 2.77355 0.00499838 25.8903 -4.82299
154 1 3.31625 0.00499877 23.0111 -4.82295
155 1 4.42746 2.34415 21.7505 -4.83705
156 1 3.87474 0.00499912 20.1398 -4.82802
157 1 4.97974 2.34415 18.8677 -4.8335
158 1 4.42805 0.00499955 17.2638 -4.82892
159 1 5.53626 2.34415 15.9894 -4.83354
160 1 3.86658 2.34415 24.629 -4.83248
161 1 5.54685 0.00499855 24.8849 -4.8093
162 1 6.10563 2.34415 26.4312 -4.79391
163 1 15.4839 0.00499824 26.9698 -4.86233
164 1 6.78516 0.00499786 33.1344 -4.99008
165 1 0.139365 2.34415 31.5949 -4.85285
166 1 7.20704 0.00499827 29.9859 -4.92629
167 1 5.21836 2.34415 34.64 -4.6238
168 1 4.01537 0.00499777 33.2904 -4.6864
169 1 5.16337 2.34415 31.9911 -4.6954
170 1 4.40246 0.00499737 30.4996 -4.77235
171 1 5.61283 2.34415 29.2632 -4.73449
172 1 5.02136 0.00499832 27.7358 -4.7939
173 1 1.44851 0.00499759 34.64 -4.72105
174 1 2.55976 2.34415 33.2331 -4.78373
175 1 1.69658 0.00499777 31.6884 -4.78847
176 1 2.80977 2.34415 30.3913 -4.82185
177 1 2.19227 0.00499796 28.749 -4.79394
178 1 0.563466 2.34415 28.5784 -4.83655
179 1 4.98431 0.005 14.3885 -4.8302
180 1 1.11615 2.34415 25.6556 -4.85534
181 1 0.547625 0.00499863 24.0468 -4.85787
182 1 1.6568 2.34415 22.7357 -4.83931
183 1 4.4305 2.34415 8.31339 -4.83118
184 1 3.87669 0.005 6.71467 -4.83118
185 1 4.98431 2.34415 5.43569 -4.83118
186 1 4.4305 0.005 3.83698 -4.82122
187 1 5.53812 2.34415 2.558 -4.64741
188 1 4.98431 0.005 0.959281 -4.00031
189 1 1.10762 2.34415 12.1503 -4.83122
190 1 0.553812 0.005 10.5516 -4.83118
191 1 1.66144 2.34415 9.27262 -4.83118
192 1 1.10762 0.005 7.6739 -4.83118
193 1 2.21525 2.34415 6.39493 -4.83118
194 1 1.66144 0.005 4.79621 -4.83118
195 1 2.76906 2.34415 3.51723 -4.81816
196 1 2.21525 0.005 1.91851 -4.54167
197 1 0.553812 2.34415 1.59877 -4.39166
198 1 3.32287 0.005 9.59236 -4.83118
199 1 7.83958 2.34415 34.64 -4.74324
200 1 3.87669 2.34415 11.1911 -4.83116
201 1 3.32287 2.34415 14.0688 -4.83255
202 1 1.09934 0.00499905 21.1335 -4.84361
203 1 2.2143 2.34415 19.8428 -4.83832
204 1 1.65848 0.00499945 18.2395 -4.8405
205 1 2.76774 2.34415 16.9533 -4.83529
206 1 2.21525 0.005 15.3478 -4.83503
207 1 0.553812 2.34415 15.028 -4.82709
208 1 5.42736e-15 0.005 13.4293 -4.82992
209 1 6.09194 2.34415 13.1095 -4.83241
210 1 5.53812 0.005 11.5108 -4.83119
211 1 6.64575 2.34415 10.2319 -4.83118
212 1 6.09194 0.005 8.63313 -4.83118
213 1 7.19956 2.34415 7.35416 -4.83118
214 1 6.64575 0.005 5.75544 -4.83118
215 1 3.87669e-15 2.34415 4.47646 -4.82813
216 1 7.19956 0.005 2.87774 -4.72768
217 1 2.76906 0.005 12.4701 -4.83111
218 1 3.32287 2.34415 0.639538 -3.81696
219 1 7.75337 0.005 5e-05 -2.91263
220 1 13.8551 0.00499887 22.0349 -4.82146
221 1 14.9564 2.34415 20.7542 -4.81622
222 1 14.4021 0.00499953 19.1697 -4.82472
223 1 7.75546 2.34415 17.8939 -4.82219
224 1 14.9554 0.00499977 16.3015 -4.82717
225 1 11.0942 2.34415 27.5325 -4.85456
226 1 14.4133 2.34415 23.6095 -4.80708
227 1 10.5269 0.00499855 25.8903 -4.82299
228 1 11.0696 0.0049989 23.0111 -4.82295
229 1 12.1808 2.34415 21.7505 -4.83705
230 1 11.6281 0.00499928 20.1398 -4.82802
231 1 12.7331 2.34415 18.8677 -4.8335
232 1 12.1814 0.00499965 17.2638 -4.82892
233 1 13.2896 2.34415 15.9894 -4.83354
234 1 11.62 2.34415 24.629 -4.83248
235 1 13.3002 0.0049986 24.8849 -4.8093
236 1 13.859 2.34415 26.4312 -4.79391
237 1 7.73052 0.0049986 26.9698 -4.86233
238 1 14.5385 0.00499793 33.1344 -4.99008
239 1 7.89274 2.34415 31.5949 -4.85285
240 1 14.9604 0.00499811 29.9859 -4.92629
241 1 12.9717 2.34415 34.64 -4.6238
242 1 11.7687 0.00499894 33.2904 -4.6864
243 1 12.9167 2.34415 31.9911 -4.6954
244 1 12.1558 0.00499861 30.4996 -4.77235
245 1 13.3662 2.34415 29.2632 -4.73449
246 1 12.7747 0.00499843 27.7358 -4.7939
247 1 9.20189 0.0049981 34.64 -4.72105
248 1 10.3131 2.34415 33.2331 -4.78373
249 1 9.44996 0.00499844 31.6884 -4.78847
250 1 10.5631 2.34415 30.3913 -4.82185
251 1 9.94565 0.00499847 28.749 -4.79394
252 1 8.31684 2.34415 28.5784 -4.83655
253 1 12.7377 0.005 14.3885 -4.8302
254 1 8.86953 2.34415 25.6556 -4.85534
255 1 8.301 0.00499888 24.0468 -4.85787
256 1 9.41018 2.34415 22.7357 -4.83931
257 1 12.1839 2.34415 8.31339 -4.83118
258 1 11.6301 0.005 6.71467 -4.83118
259 1 12.7377 2.34415 5.43569 -4.83118
260 1 12.1839 0.005 3.83698 -4.82122
261 1 13.2915 2.34415 2.558 -4.64741
262 1 12.7377 0.005 0.959281 -4.00031
263 1 8.861 2.34415 12.1503 -4.83122
264 1 8.30719 0.005 10.5516 -4.83118
265 1 9.41481 2.34415 9.27262 -4.83118
266 1 8.861 0.005 7.6739 -4.83118
267 1 9.96862 2.34415 6.39493 -4.83118
268 1 9.41481 0.005 4.79621 -4.83118
269 1 10.5224 2.34415 3.51723 -4.81816
270 1 9.96862 0.005 1.91851 -4.54167
271 1 8.30719 2.34415 1.59877 -4.39166
272 1 11.0762 0.005 9.59236 -4.83118
273 1 0.0862106 2.34415 34.64 -4.74324
274 1 11.6301 2.34415 11.1911 -4.83116
275 1 11.0762 2.34415 14.0688 -4.83255
276 1 8.85272 0.00499906 21.1335 -4.84361
277 1 9.96767 2.34415 19.8428 -4.83832
278 1 9.41185 0.00499971 18.2395 -4.8405
279 1 10.5211 2.34415 16.9533 -4.83529
280 1 9.96862 0.005 15.3478 -4.83503
281 1 8.30719 2.34415 15.028 -4.82709
282 1 7.75337 0.005 13.4293 -4.82992
283 1 13.8453 2.34415 13.1095 -4.83241
284 1 13.2915 0.005 11.5108 -4.83119
285 1 14.3991 2.34415 10.2319 -4.83118
286 1 13.8453 0.005 8.63313 -4.83118
287 1 14.9529 2.34415 7.35416 -4.83118
288 1 14.3991 0.005 5.75544 -4.83118
289 1 7.75337 2.34415 4.47646 -4.82813
290 1 14.9529 0.005 2.87774 -4.72768
291 1 10.5224 0.005 12.4701 -4.83111
292 1 11.0762 2.34415 0.639538 -3.81696
Egb = 0.461926308725685
